/*--------------------------------*- C++ -*----------------------------------*\
| =========                 |                                                 |
| \\      /  F ield         | OpenFOAM: The Open Source CFD Toolbox           |
|  \\    /   O peration     | Version:  2012                                  |
|   \\  /    A nd           | Website:  www.openfoam.com                      |
|    \\/     M anipulation  |                                                 |
\*---------------------------------------------------------------------------*/
FoamFile
{
    version     2.0;
    format      ascii;
    class       volScalarField;
    location    "0";
    object      nut;
}
// * * * * * * * * * * * * * * * * * * * * * * * * * * * * * * * * * * * * * //

dimensions      [0 2 -1 0 0 0 0];


internalField   nonuniform List<scalar> 
155952
(
2.3743001e-12
3.7673818e-11
1.2348973e-10
9.9570491e-12
1.2891173e-11
7.6203928e-10
2.6403055e-09
2.0064001e-09
9.3410467e-10
4.9019019e-10
2.2522238e-10
1.7550505e-11
5.2412319e-13
3.8453895e-11
1.1660628e-09
8.3742062e-09
1.0427671e-08
2.4685938e-09
1.7524343e-10
5.2575291e-11
6.477763e-11
4.3173267e-12
4.3285068e-11
3.0624586e-10
1.4472373e-10
8.0596881e-12
3.0969926e-13
3.9871253e-13
1.2580175e-11
8.9950906e-13
5.0539857e-12
1.2013687e-11
7.2161925e-12
7.6198927e-12
1.087143e-12
5.7775756e-12
1.2822455e-13
6.3260487e-13
1.5337478e-10
7.0524724e-10
1.0920562e-09
1.3736181e-10
8.5392658e-10
1.7550351e-08
4.3529494e-08
2.7312362e-08
1.0032047e-08
4.3032774e-09
1.430432e-09
9.6134547e-11
1.6202109e-11
1.4987391e-09
2.629759e-08
1.231899e-07
1.212792e-07
2.5292959e-08
2.1045829e-09
1.1260544e-09
1.3251909e-09
8.9611543e-11
8.5813856e-10
5.6713526e-09
3.2069056e-09
2.7946321e-10
7.81751e-12
1.5254573e-12
1.0856588e-11
6.7369835e-12
1.196634e-10
3.4972859e-10
2.6333454e-10
5.505215e-11
4.4689077e-11
9.0843103e-11
5.9423768e-12
5.1981612e-11
1.0723804e-09
3.4999556e-09
3.7433795e-09
5.6400105e-10
5.6795439e-09
8.3823941e-08
1.9061112e-07
1.1751756e-07
3.8914638e-08
1.4912975e-08
5.0022424e-09
6.5310977e-10
3.9544013e-10
1.0588416e-08
1.2592787e-07
4.953533e-07
4.5302962e-07
9.0562088e-08
7.9399332e-09
4.9163833e-09
4.9398683e-09
1.8134244e-10
6.0344971e-09
2.9996267e-08
1.5980446e-08
1.4266352e-09
3.6676793e-11
1.2696525e-11
6.5955949e-12
3.896214e-11
6.5695174e-10
1.8829964e-09
1.4767544e-09
2.0916192e-10
2.6193679e-10
3.1408277e-10
4.5470807e-11
3.6994199e-10
4.1137122e-09
9.468899e-09
7.4560613e-09
1.3220358e-09
1.8465959e-08
2.2251245e-07
4.824499e-07
3.0272937e-07
9.1785821e-08
3.1500973e-08
1.1701722e-08
3.0966333e-09
3.111687e-09
3.6985677e-08
3.29396e-07
1.1745486e-06
1.0475748e-06
2.054744e-07
1.8225586e-08
1.2061346e-08
1.0847819e-08
3.0275562e-10
2.2702879e-08
9.4442777e-08
4.8251384e-08
4.4540973e-09
1.0715694e-10
5.9142753e-11
9.0370704e-13
1.4090125e-10
2.0356361e-09
5.8546717e-09
4.6874393e-09
5.1149884e-10
8.8173814e-10
7.2033841e-10
1.8921023e-10
1.4419637e-09
1.170755e-08
1.8410042e-08
1.0523639e-08
2.2671391e-09
4.0426547e-08
4.3110346e-07
9.0310921e-07
5.9225648e-07
1.6627686e-07
5.0228933e-08
2.215237e-08
1.1413654e-08
1.4165722e-08
8.8513597e-08
6.1798854e-07
2.1089479e-06
1.9020909e-06
3.7127372e-07
3.2962396e-08
2.1806155e-08
1.8633929e-08
6.7278337e-10
5.9519446e-08
2.2824313e-07
1.149234e-07
1.1193835e-08
2.5834456e-10
1.8478436e-10
4.8816942e-12
3.7048317e-10
4.6530075e-09
1.3648076e-08
1.087967e-08
9.3963643e-10
2.3836838e-09
1.4315579e-09
5.5922135e-10
4.1861599e-09
2.8748276e-08
3.1519155e-08
1.2004753e-08
3.5238693e-09
6.6616152e-08
6.9262246e-07
1.4136693e-06
9.9631857e-07
2.6335449e-07
6.7352946e-08
3.5994811e-08
3.3800131e-08
4.9326446e-08
1.7481038e-07
9.5906095e-07
3.2351413e-06
3.0420831e-06
5.9508602e-07
5.2249602e-08
3.1911208e-08
2.7939492e-08
1.7443825e-09
1.2232875e-07
4.7426027e-07
2.4623342e-07
2.6419426e-08
6.062462e-10
4.1431218e-10
6.1123484e-11
7.9875528e-10
8.9114345e-09
2.6962932e-08
2.1680223e-08
1.5745866e-09
5.913461e-09
2.8202709e-09
1.2929311e-09
1.032771e-08
6.2764861e-08
5.4080744e-08
1.219637e-08
7.7015809e-09
8.5161929e-08
9.8906624e-07
1.971456e-06
1.5203567e-06
3.910415e-07
7.8998779e-08
5.0785815e-08
8.0698455e-08
1.4734014e-07
3.1803025e-07
1.3329626e-06
4.4849712e-06
4.5037342e-06
8.830884e-07
7.2798493e-08
3.9450258e-08
3.8410825e-08
4.3714323e-09
2.0713393e-07
8.9046673e-07
5.0376441e-07
6.2427974e-08
1.5686614e-09
7.1756354e-10
2.7942583e-10
1.5684385e-09
1.5129728e-08
4.7376477e-08
3.9721514e-08
2.6105499e-09
1.4299217e-08
5.9734575e-09
2.4878289e-09
2.2941602e-08
1.2470453e-07
1.0073902e-07
1.2015025e-08
3.0023154e-08
8.0209693e-08
1.3128583e-06
2.5561862e-06
2.1552022e-06
5.7360499e-07
8.2765624e-08
6.4624643e-08
1.548773e-07
3.9811501e-07
5.8113187e-07
1.7315967e-06
5.7884216e-06
6.3045638e-06
1.2286264e-06
8.8418064e-08
4.1824859e-08
4.9136149e-08
1.0227325e-08
2.9542069e-07
1.541701e-06
1.0091851e-06
1.5099642e-07
4.7139957e-09
1.0768022e-09
7.4290637e-10
3.0249391e-09
2.3456505e-08
7.5429276e-08
6.8336577e-08
4.4052687e-09
3.4399565e-08
1.399536e-08
4.1788486e-09
4.7052954e-08
2.3837052e-07
2.0741914e-07
1.1234002e-08
1.3760583e-07
4.4161261e-08
1.6704542e-06
3.1950751e-06
2.8770331e-06
8.722943e-07
8.5914893e-08
8.6703701e-08
2.3822489e-07
9.9199375e-07
1.1554353e-06
2.1957569e-06
7.0913694e-06
8.3980599e-06
1.5907636e-06
9.3878298e-08
3.7941754e-08
5.8093449e-08
2.2387317e-08
3.5937053e-07
2.4681246e-06
1.9901751e-06
3.7507293e-07
1.5736297e-08
1.8017504e-09
1.3970755e-09
5.7473566e-09
3.4018531e-08
1.1035533e-07
1.1006549e-07
7.5929163e-09
8.2288304e-08
3.5288167e-08
6.4897601e-09
9.042258e-08
4.4712247e-07
4.5279597e-07
9.1891614e-09
5.1243844e-07
7.4993679e-09
2.0738145e-06
3.9808576e-06
3.6690233e-06
1.4067866e-06
9.7119749e-08
1.6631761e-07
3.0251734e-07
2.2642131e-06
2.6717312e-06
2.9532528e-06
8.4069866e-06
1.0611279e-05
1.8690128e-06
8.6663158e-08
2.9533376e-08
6.236414e-08
4.5082112e-08
3.7903821e-07
3.6184209e-06
3.8315085e-06
9.2989586e-07
5.3818097e-08
4.5726161e-09
2.382207e-09
9.9227563e-09
4.7649726e-08
1.5030391e-07
1.6339063e-07
1.3212015e-08
1.939604e-07
9.0656383e-08
1.0184255e-08
1.6510866e-07
8.1723488e-07
9.8370102e-07
1.5906935e-08
1.3235752e-06
8.2255145e-08
2.5201689e-06
5.1020194e-06
4.5620513e-06
2.3228374e-06
1.1164027e-07
4.9996208e-07
3.8932294e-07
4.5919428e-06
7.4478668e-06
4.6375546e-06
9.926058e-06
1.262941e-05
1.9879616e-06
7.2909156e-08
2.2146769e-08
5.9792885e-08
8.1447349e-08
3.5898835e-07
4.7725644e-06
7.072709e-06
2.2201401e-06
1.7724103e-07
1.6413799e-08
5.8715219e-09
1.3855992e-08
6.7353694e-08
1.8589224e-07
2.1918305e-07
2.2865919e-08
4.4671877e-07
2.2576783e-07
1.8043638e-08
2.9225841e-07
1.4593493e-06
2.0299077e-06
9.8870777e-08
2.1763063e-06
2.0681181e-06
2.9601087e-06
6.9433348e-06
5.6759929e-06
3.6763378e-06
1.4332124e-07
1.7706957e-06
8.7175157e-07
7.8150296e-06
2.4779579e-05
9.1375607e-06
1.221389e-05
1.4192518e-05
1.943802e-06
7.8061801e-08
2.6086099e-08
5.1588218e-08
1.3015987e-07
3.257193e-07
5.5516955e-06
1.2216344e-05
5.0381119e-06
5.4202873e-07
6.0823371e-08
2.459291e-08
1.4323385e-08
9.8887135e-08
2.0805774e-07
2.6322345e-07
3.944264e-08
1.0027541e-06
5.2757176e-07
3.8558304e-08
5.1631442e-07
2.5783202e-06
3.9112792e-06
5.4485874e-07
2.2286926e-06
1.3026866e-05
3.4413297e-06
1.0463137e-05
7.259073e-06
5.3733824e-06
3.8805618e-07
5.7459037e-06
3.848458e-06
1.0225857e-05
9.0919505e-05
2.2889227e-05
1.6521915e-05
1.5562684e-05
1.7831352e-06
1.8045024e-07
6.8707145e-08
4.3828821e-08
1.8473975e-07
3.1355581e-07
5.608315e-06
1.9180676e-05
1.0725571e-05
1.5019646e-06
1.9293761e-07
1.1805358e-07
1.3285191e-08
1.4525218e-07
2.2867076e-07
2.9129599e-07
7.0969218e-08
2.2042607e-06
1.1434709e-06
9.7400712e-08
9.4243716e-07
4.5932668e-06
7.1019203e-06
1.9879287e-06
1.6028747e-06
1.7967989e-05
0.00017182107
1.9316326e-05
9.7901574e-06
7.3172758e-06
1.6819404e-06
1.4343232e-05
1.9819784e-05
9.7753681e-06
0.00030674169
6.7262458e-05
2.5183694e-05
1.7856501e-05
1.8467388e-06
6.27729e-07
2.2987168e-07
4.6613206e-08
2.381509e-07
3.4429648e-07
4.9128186e-06
2.6515259e-05
2.0929806e-05
3.6780806e-06
4.8445639e-07
5.0019468e-07
3.4677701e-08
1.9147045e-07
2.7178936e-07
3.2498651e-07
1.4499948e-07
4.7889581e-06
2.3499053e-06
2.8201166e-07
1.8516321e-06
8.4299753e-06
1.2491015e-05
5.3125168e-06
1.1808814e-06
9.4873501e-06
0.0001136551
5.7260334e-05
1.4283139e-05
9.5806966e-06
5.3329424e-06
2.1862713e-05
8.8672965e-05
1.2722411e-05
0.00074430503
0.00019632656
4.1576429e-05
2.2702985e-05
2.7317984e-06
1.861388e-06
6.4742402e-07
7.4603892e-08
2.8979905e-07
4.2105767e-07
3.8063941e-06
3.1273326e-05
3.6456588e-05
7.7257364e-06
9.5230108e-07
1.7457492e-06
2.5057951e-07
1.965591e-07
3.8846362e-07
4.007063e-07
3.4684989e-07
1.0333513e-05
4.9541967e-06
9.7088255e-07
4.1294718e-06
1.6257718e-05
2.199436e-05
1.1610551e-05
1.4584388e-06
1.1673282e-05
3.2085156e-05
0.00063094794
2.3014888e-05
1.2540035e-05
1.1262033e-05
1.6476694e-05
0.00029732881
7.174174e-05
0.0011445525
0.00047605234
6.8325278e-05
3.1276518e-05
5.0757357e-06
4.0725479e-06
1.4530771e-06
1.4909169e-07
3.5000216e-07
5.4294954e-07
2.7147397e-06
3.1026991e-05
5.5024686e-05
1.3770587e-05
1.4611073e-06
4.7671096e-06
1.7312989e-06
1.3125313e-07
7.0738567e-07
5.4519851e-07
8.8020375e-07
2.1832522e-05
1.214903e-05
4.0325427e-06
1.1008839e-05
3.3434225e-05
3.9833145e-05
2.266653e-05
2.8632703e-06
1.7016227e-05
6.7288871e-05
7.4445932e-05
4.4270506e-05
1.6918862e-05
1.8025022e-05
6.7472324e-06
0.00064061436
0.00043219114
0.0011958836
0.00087231331
0.00010427572
4.4711129e-05
9.4158474e-06
6.6960719e-06
2.8282311e-06
2.9286831e-07
4.4140216e-07
7.1808287e-07
1.8880462e-06
2.5955689e-05
7.0674993e-05
2.1499013e-05
1.7237374e-06
1.0087923e-05
9.8820465e-06
5.0474284e-08
1.4520524e-06
8.0809795e-07
2.0595965e-06
4.3267512e-05
3.7025503e-05
1.5885733e-05
3.5714382e-05
7.2666384e-05
7.5523863e-05
4.231628e-05
6.1322735e-06
1.9318167e-05
0.0002194063
1.5760959e-05
0.00012277441
2.3715778e-05
2.485523e-05
7.4408095e-06
0.00087062201
0.0012527178
0.00089510606
0.001214567
0.00014268866
6.3445506e-05
1.5894694e-05
8.504238e-06
5.4740437e-06
5.5146305e-07
6.0235359e-07
9.8095102e-07
1.3929884e-06
1.8380276e-05
7.7459639e-05
3.0513148e-05
1.6922019e-06
1.7117566e-05
4.9620436e-05
1.2301637e-07
2.8064695e-06
1.4333488e-06
4.1108825e-06
7.546294e-05
0.00012658544
3.5235098e-05
0.00012754732
0.00015444434
0.00014965052
7.9636947e-05
1.218567e-05
1.9311071e-05
0.00017719714
1.0874374e-05
0.00056902678
3.4125771e-05
3.2063456e-05
2.3054927e-05
0.00088937737
0.0019771656
0.00045496945
0.0013453898
0.00017319108
8.4544732e-05
2.441688e-05
8.1768461e-06
1.1408635e-05
1.1244784e-06
8.952231e-07
1.4211037e-06
1.2214199e-06
1.1089266e-05
7.2916206e-05
3.996099e-05
1.8241267e-06
2.6542847e-05
0.00022182144
1.8511317e-06
4.6453042e-06
3.2743792e-06
6.9711265e-06
0.0001087996
0.0003852518
3.0451781e-05
0.0003309331
0.00026396467
0.0002915561
0.00015714211
2.234857e-05
1.9435493e-05
5.4692387e-05
1.6422638e-05
0.00027032779
4.9715494e-05
4.0206621e-05
4.9524706e-05
0.0007773523
0.0023366474
0.00021882321
0.0012114918
0.00018876272
0.00010498883
3.5370087e-05
5.9011359e-06
2.3910453e-05
2.8605016e-06
1.3904262e-06
2.2247873e-06
1.4181326e-06
5.7648094e-06
5.9134322e-05
4.8790496e-05
2.8403464e-06
3.629697e-05
0.00071356366
1.7920294e-05
6.4388975e-06
8.323308e-06
1.0585697e-05
0.00012513754
0.00084553454
0.00013826209
0.00043264045
0.00032051246
0.00046431777
0.00030943741
3.8946755e-05
2.1552698e-05
4.2166573e-05
3.2135304e-05
7.8353078e-05
7.1230298e-05
5.0015576e-05
7.5990871e-05
0.00058565691
0.0024816445
0.00030094615
0.00087662223
0.00018839931
0.00012458454
4.8360926e-05
4.4938354e-06
4.1844155e-05
9.4230473e-06
2.0358846e-06
3.7045062e-06
2.2261525e-06
2.7074142e-06
4.1915757e-05
5.6421612e-05
5.8613937e-06
2.5657234e-05
0.0009570719
0.00013179846
7.4947698e-06
1.9529755e-05
1.5612172e-05
0.00011490784
0.0012933412
0.0011163572
0.00055147179
0.00078337548
0.00041313604
0.00045762033
6.201592e-05
2.6981747e-05
3.8721008e-05
6.6237593e-05
4.1899472e-05
9.0027405e-05
6.2009255e-05
9.7701955e-05
0.0003782408
0.00250279
0.00056316911
0.00048408439
0.00017123669
0.00014389205
6.1608608e-05
7.2144131e-06
4.9639858e-05
3.2899754e-05
2.5261216e-06
6.1831921e-06
4.3037732e-06
1.5062825e-06
2.6698925e-05
6.349329e-05
1.281407e-05
4.2222062e-06
0.00064714949
0.00079823861
7.3355712e-06
3.9253827e-05
2.3706259e-05
8.6391068e-05
0.0015441383
0.0024608429
0.0013306982
0.0019905983
0.00023747927
0.00024705181
6.2505149e-05
3.7611793e-05
4.0873617e-05
0.00011837103
3.3372326e-05
0.00011638429
7.5260748e-05
0.00011481612
0.00023616756
0.0023791924
0.0007786769
0.0001786965
0.0001290121
0.0001631185
7.2904799e-05
1.5578653e-05
3.8897848e-05
8.6826836e-05
3.2343702e-06
9.4953007e-06
8.9007948e-06
1.9285658e-06
1.597199e-05
7.2045471e-05
2.6482271e-05
4.9706017e-07
0.00053499946
0.0023624595
5.8059307e-06
6.7812697e-05
3.6978039e-05
5.6133859e-05
0.0016032069
0.0033012317
0.0024398705
0.0029654224
0.0008968162
4.5264845e-05
5.6574685e-06
5.5350851e-05
5.239808e-05
8.698601e-05
3.3767923e-05
0.0003776875
8.8427452e-05
0.00012835765
0.00017579553
0.0020358767
0.00088535222
3.789101e-05
5.8060458e-05
0.00018025348
8.0752217e-05
2.9248718e-05
2.9733626e-05
0.00014192055
7.7851669e-06
1.2227423e-05
1.7586052e-05
5.1661559e-06
9.8022972e-06
8.4954222e-05
4.9704785e-05
4.6120261e-06
0.00048210018
0.0019676038
3.571646e-06
0.00010376806
5.6701651e-05
3.624859e-05
0.0015303078
0.0037933408
0.0031478014
0.0035114127
0.0018254396
0.0001250233
3.2377053e-05
6.7731887e-05
8.4851405e-05
8.1738206e-05
4.1411047e-05
0.00046060318
9.9666397e-05
0.00013931515
0.00016138573
0.0014652829
0.0009408679
8.5599506e-06
2.5124964e-05
0.0001879349
8.5294258e-05
4.7519317e-05
3.74856e-05
0.00015071698
2.066995e-05
1.2464927e-05
3.0935388e-05
1.4904122e-05
7.4652936e-06
0.00010463302
8.3882748e-05
9.987512e-06
0.00032974472
0.0007277971
2.628206e-06
0.00014549466
8.2258148e-05
3.0314245e-05
0.001369959
0.0040889307
0.0034256912
0.0035341485
0.0023258912
0.00029285469
0.00012419149
0.00015586817
0.0001884524
6.1266016e-05
6.6525162e-05
0.00032226449
0.0001028863
0.00015222417
0.00016129819
0.00084988019
0.00099408146
1.5825048e-05
0.00014672485
0.0001698007
8.7210584e-05
6.7874793e-05
6.3193354e-05
0.00013238503
3.2103047e-05
1.0740989e-05
4.6749879e-05
3.7185507e-05
8.3929357e-06
0.00013015423
0.00012737795
1.3094381e-05
0.000235263
0.00030728079
1.3608362e-05
0.00019304284
0.00011148089
4.1145749e-05
0.0011336499
0.0042724738
0.0034505637
0.0031337832
0.0024876049
0.00047053443
0.00019073083
0.00021399021
0.00059218542
5.5623173e-05
0.00017409401
0.00021335771
8.2979839e-05
0.00017270222
0.00016514444
0.00040170895
0.0010397309
6.2953055e-05
0.00035677047
0.00017479404
8.6040664e-05
9.0838751e-05
0.00010603551
0.00012657404
3.2999697e-05
9.3387107e-06
6.1075634e-05
7.3055764e-05
1.1942253e-05
0.00015580861
0.00017229484
1.6414619e-05
5.7055645e-05
0.00023271781
0.00015067392
0.00025014975
0.00014240376
7.3972985e-05
0.00080848408
0.0043868422
0.0033951081
0.0026173637
0.0024268135
0.00063196564
0.00025603508
0.00015672693
0.00078587761
7.3032243e-05
0.00061239432
0.00014785061
2.9755124e-05
0.00020149956
0.00017294211
0.00016437549
0.00099153231
0.0002280214
0.00046845041
0.00097897734
7.0139588e-05
0.00012459533
0.00017484172
0.00014802913
3.113376e-05
9.3177586e-06
7.1273042e-05
0.00011022736
1.7059098e-05
0.00017527224
0.00020248722
2.156789e-05
5.9863616e-06
0.00026915951
0.00057480239
0.00032533252
0.0001758138
0.00012290751
0.00041645094
0.0044475819
0.0033608541
0.0021715595
0.0022421584
0.00072018401
0.00033748774
0.00013715979
9.3612324e-05
0.00014034072
0.00016014549
0.00011485082
0.00066229492
0.00024098603
0.00018534431
7.5505132e-05
0.00075245659
0.00068855186
0.0005360611
0.0022441338
1.8694846e-05
0.00017925753
0.00030009144
0.00020815013
3.3559894e-05
1.0991468e-05
7.5795845e-05
0.00013161091
2.312152e-05
0.00016604422
0.00020543128
2.8807629e-05
5.8328374e-07
0.00034197571
0.00050269444
0.00042837537
0.00021758487
0.00016832581
9.808951e-05
0.00443026
0.003411324
0.0018105809
0.0019816492
0.00066925849
0.00040755954
0.00016176832
1.3719657e-05
0.00032286024
0.00024352118
0.00011612685
0.0014690527
0.00029311228
0.00020566945
6.7207311e-05
0.00038241156
0.0016451579
0.00061570771
0.0020357644
0.0011353721
0.0001774196
0.00059286843
0.00034214996
4.3215319e-05
1.457727e-05
7.4815124e-05
0.00013045019
3.0474522e-05
0.00012275791
0.00019272765
3.8177302e-05
7.4141698e-07
0.00029747664
0.00023502326
0.00053548928
0.00027942866
0.0001971212
1.6012968e-05
0.0042062212
0.0036049859
0.0015390376
0.0016752643
0.00050308578
0.00036694039
0.00025932733
1.0276669e-05
0.0006594095
0.00029221553
0.00019203121
0.00063211974
0.00032489549
0.0002529475
0.0001121837
0.00010371851
0.0027466481
0.00072773271
0.0015263292
0.0021603515
0.00024083096
0.0012206407
0.00061750385
6.32849e-05
2.074201e-05
7.2682636e-05
0.00011823028
3.8912012e-05
8.3698627e-05
0.00018231946
4.9764306e-05
2.0260732e-06
0.00014651558
0.00011507659
0.00048364993
0.0003787286
0.00021633256
9.2854551e-05
0.0033921801
0.0038351076
0.0013315323
0.0013983967
0.0003850739
0.00023069851
0.00053799121
3.2422399e-05
0.00098705588
0.00037760233
0.0004879269
0.00030847816
9.1664956e-05
0.00036982111
0.00021618759
2.6326977e-05
0.003230135
0.00088557335
0.0011514135
0.0011383607
0.0007197478
0.00022289226
0.00090682154
9.6861592e-05
3.1178187e-05
7.4489418e-05
0.00011232278
4.7364014e-05
6.3628413e-05
0.0001739858
6.3700833e-05
3.9747649e-06
6.0304832e-05
7.42671e-05
0.00034637785
0.00052750513
0.00024724805
0.00021104514
0.0016502827
0.0038717015
0.0012127735
0.0014430611
0.00045863044
0.00022777516
0.0010125684
0.00023461262
0.0011184504
0.00049427221
0.00051963738
0.00021784377
0.003400286
0.00060875589
0.00042896669
8.0878602e-05
0.0029522282
0.0010810247
0.00095990104
0.00065046311
0.00029153199
0.00045170744
0.00058814247
0.00013878117
4.7291548e-05
8.2217154e-05
0.00012139905
6.1185891e-05
5.7295193e-05
0.00016787821
8.0315797e-05
6.4211575e-06
2.9063392e-05
6.8180855e-05
0.00068406519
0.00068194729
0.00031817071
0.00027323977
0.00042029873
0.0034284835
0.0011233455
0.0020561194
0.00061579004
0.00027935572
0.0010266577
0.0013599821
0.0010822636
0.00063043118
0.00084993952
0.00023189302
0.0023762283
0.00060431211
0.00082211085
0.0003581816
0.0021441457
0.0011164857
0.00091074519
0.00049469624
0.00012017216
0.00049065536
0.00042420986
0.00016803986
6.4033453e-05
9.2504541e-05
0.00014172462
9.3462585e-05
6.1077467e-05
0.00017290261
9.8594964e-05
9.3493535e-06
1.781085e-05
8.6521322e-05
0.00085588719
0.00068748649
0.00046464628
0.0003262043
0.00021280802
0.0027667142
0.00094438272
0.0030030103
0.00057695276
0.00027982167
0.00045966805
0.0031260695
0.00082520551
0.00078254426
0.00071558451
0.00035039414
0.0010330426
0.0012249272
0.00058119264
0.00083589687
0.00081086196
0.00052960987
0.00097413032
0.00052579816
3.1880405e-05
0.00066539686
0.00042825166
0.0001694574
6.6503372e-05
9.4455783e-05
0.00014951162
0.0001563153
7.8603979e-05
0.00020180188
0.00011481151
1.2906505e-05
1.4162824e-05
0.00013469824
0.00084806279
0.00049495738
0.00068142267
0.00039891307
0.00021969379
0.0025460714
0.00094456727
0.0030753839
0.00075367814
0.00045052055
0.00010276522
0.0023831763
0.00046703513
0.00095964953
0.00063952569
0.00067048033
0.0005330199
0.00085378147
0.00016016734
0.00011863418
5.0748741e-05
0.00021136174
0.0011706972
0.00080487154
2.7932163e-05
0.00069569292
0.00034751586
0.00015377641
4.8567561e-05
7.8526005e-05
0.00010936418
0.00022136688
0.00012828344
0.00027963019
0.00012821238
1.7788346e-05
1.5808385e-05
0.00020549253
0.00082132272
0.00031017691
0.0008651304
0.00044849867
0.00025078354
0.0023754377
0.0020854048
0.0023507947
0.0010379645
0.00087360056
0.00016213041
0.00053350395
0.00064586735
0.0011888995
0.0006072814
0.0010729874
0.00034910499
0.00035525334
0.00033462839
6.9924295e-05
0.00013501166
0.00076825685
0.0016157329
0.0015987208
0.00036001224
0.00051969312
0.00025939689
0.00015301422
2.2923212e-05
5.0456635e-05
4.5452215e-05
0.00014432216
0.00026223231
0.00047575471
0.00015111449
2.5848268e-05
2.8239187e-05
0.00022915401
0.00078644831
0.00024354469
0.00099532423
0.00046731207
0.00019579406
0.001864744
0.0024442492
0.0015127007
0.00098786744
0.00085652079
0.00026633682
0.00030481235
0.00070639492
0.0013407341
0.0005464009
8.5818366e-05
0.00028414212
0.00022006387
0.00031289406
0.00037422364
8.0750142e-05
0.00075798543
0.0025076184
0.0019555394
0.00037906763
0.00036625444
0.0001562477
0.00033280685
1.2449377e-05
1.9052492e-05
2.4162843e-05
5.79217e-06
0.00043403861
0.00091495116
0.00021770158
3.5503668e-05
6.6414389e-05
0.00022181753
0.0006941496
0.00024333918
0.0010829885
0.00039350007
7.4770022e-05
0.0012327746
0.0018322589
0.00066684346
0.00098689552
0.00065529685
0.0002851186
0.00020576314
0.00078126425
0.00046632669
0.00049916503
0.00014665715
0.00025981322
0.00022997917
0.0004370613
0.00084508777
0.00026837129
0.00037180063
0.0031023264
0.0011020333
0.00022236282
0.00012781495
0.00033342775
0.0022205625
0.00041174081
2.1808641e-05
6.7695501e-05
3.665217e-05
0.00022211931
0.0010813189
0.00040367822
3.6162407e-05
0.00010514424
0.00022960559
0.00054424486
0.00037121887
0.0009707302
0.00022788048
1.4993541e-05
0.00066783642
0.0012821248
0.00062385538
0.001174526
0.00049117599
0.00029210469
0.00058102245
0.00043601669
0.00091595789
0.00054144776
0.0004052474
0.0001997956
0.00044384201
0.0009113162
0.0016697162
0.00095947585
0.00012156545
0.00051185225
0.00015871305
7.8818065e-06
0.00086501282
0.0031497777
0.0039173963
0.0017919056
0.00037290116
0.00015269414
0.00022104442
0.00020596763
0.00032992566
0.00067920163
3.4637766e-05
0.00010218574
0.00024808316
0.00041237291
0.00052706397
0.00074033306
0.00010218238
2.6113808e-06
0.00028500059
0.0010271642
0.00066688962
0.00086326935
0.00031647238
0.0003240831
0.00046780356
0.0015071761
0.00063732401
0.00054925118
0.00045100042
0.00012519699
0.0011299396
0.0020722308
0.0028910205
0.0018865237
0.00072824376
0.00037905098
0.00052223117
0.0017451375
0.0037830304
0.0045283153
0.0041534931
0.0022998651
0.00078616427
0.00018170075
0.0003912495
0.00019332978
0.00021029426
0.00056908161
3.5932086e-05
9.9446673e-05
0.00025368257
0.0003391383
0.00049142292
0.00058959981
3.2260188e-05
7.7167623e-06
0.00012692668
0.00088058349
0.00060920295
0.0003767058
0.00026432163
0.00032104096
0.00013555949
0.002945012
8.5206574e-05
0.00020886252
0.00017927567
0.0005119507
0.0003595073
0.0020214712
0.0023336291
0.00093012067
0.00059720733
0.00075430981
0.001010489
0.0018337648
0.0037555185
0.0045670944
0.0039589209
0.0022341275
0.00079313024
0.0001566949
0.00045680718
0.00012905608
0.00012800797
0.00036466885
2.3292721e-05
0.00012004775
0.00019353158
0.0003066261
0.00037472118
0.00038199245
4.7443814e-06
4.8970467e-05
7.8475681e-05
0.00072451128
0.00045497974
0.00024084102
0.00026869517
0.0002519876
5.5630773e-05
0.0013496139
0.00025449134
0.00024103877
8.8311813e-05
0.00013046719
0.0001792236
4.8310525e-05
8.0960167e-05
7.2325332e-05
0.00020640735
0.00088354117
0.0010955019
0.0013562283
0.0029174171
0.0040200059
0.0036293656
0.002071165
0.00067250011
0.00012490834
0.00042013735
8.8734862e-05
6.1155981e-05
0.00024597635
1.122367e-05
0.00013415394
0.0001506606
7.9278876e-05
0.00024254545
0.00021607565
0.0001053633
9.9827331e-05
8.2526649e-05
0.00053408127
0.00026234407
0.0001546624
0.00020649663
0.00016733815
3.9652545e-05
0.00042986438
0.00054032436
0.00016162647
0.00024944406
5.4513872e-05
3.7941143e-05
8.998566e-06
1.3645101e-05
8.1275106e-06
4.1191052e-05
0.00065073445
0.001210163
0.00094101311
0.0019298397
0.003152835
0.0032626901
0.0019812871
0.00058687396
0.00010703997
0.00033208629
8.8700247e-05
3.2824005e-05
0.00014667162
6.6605121e-06
0.00012967961
0.00019137822
3.4110126e-05
5.9564998e-05
0.00034058373
8.5083191e-05
5.1847587e-05
0.00010162853
0.00038564878
0.00013950662
8.4426491e-05
0.00016376733
0.00082089521
3.9195429e-05
0.00015720334
0.00030603834
0.000185179
0.00066957892
4.0250337e-05
1.4635263e-05
1.4078796e-06
6.4817354e-06
5.4913152e-06
2.2397076e-05
0.00036924657
0.0011462505
0.00080327285
0.0013040293
0.0022842371
0.0028040016
0.0019153678
0.00056517953
0.00010784935
0.00024286487
0.00011548122
2.8879637e-05
6.5736258e-05
4.8693059e-06
0.00012970131
0.00026485608
0.00012560487
4.7328275e-05
0.0001692303
3.0259271e-05
3.1388187e-05
0.00023631949
0.00034699734
9.2351208e-05
5.3615355e-05
9.2414353e-05
0.00066953355
0.00021987106
0.00011287464
0.0001531893
0.00027133389
0.00020195331
3.4467813e-05
9.8088068e-06
7.3963762e-07
4.4376357e-06
4.3890919e-06
2.5318328e-05
0.00021941398
0.0008385095
0.00099390183
0.0011743588
0.0016608945
0.0022175088
0.0017620754
0.00058621779
0.00011546422
0.00019247323
0.00016504873
3.9585222e-05
2.2170399e-05
4.5993923e-06
0.00015742247
0.00032716258
0.00019158865
0.00012109244
0.00036448905
0.00011335329
7.9387017e-05
0.00080212793
0.00036847653
8.191732e-05
6.9985167e-05
4.3559789e-05
0.00017712477
0.00058321347
0.0009996167
0.00040540681
0.00031240932
5.5891931e-05
0.00014246618
2.8508637e-06
1.5188178e-06
6.7558794e-06
2.1382175e-06
2.2651552e-05
0.00011467252
0.00037084318
0.00075556228
0.00095493494
0.0011733798
0.0015756338
0.0014853445
0.00060436457
9.6222511e-05
0.00020633889
0.00024043275
5.3993763e-05
1.3799009e-05
9.7416693e-06
0.00021764856
0.00038343923
0.00024146271
0.00019890691
0.00057923466
0.00027972994
0.00035266885
0.001050727
0.00031713432
0.00010588154
0.00023149162
4.4516485e-05
3.9376296e-05
6.0770069e-05
9.9748781e-05
2.9434e-05
4.739414e-06
4.2604352e-05
0.0002580275
0.00010383846
9.799784e-06
1.990145e-05
2.1207435e-06
1.6118918e-05
4.1552215e-05
8.6629233e-05
0.00026812422
0.00044892278
0.00068318608
0.0010167201
0.0011536588
0.0005926446
7.0901138e-05
0.00025213192
0.00032860959
6.9264354e-05
2.0259322e-05
2.4522392e-05
0.00027170484
0.00045743369
0.00035271196
0.00029982739
0.00069495873
0.00021285004
0.00098139438
0.00037050402
0.00024588833
0.00032580779
0.00027699941
7.1757232e-05
1.5877289e-05
2.6603828e-05
3.6711283e-05
1.3024868e-05
1.5910757e-06
4.2260446e-05
0.00024169983
0.00019556142
9.7765177e-05
5.2908321e-05
1.472942e-05
1.871856e-05
1.0767673e-05
4.3004571e-05
0.00017614729
0.00019660583
0.0003262973
0.00063058003
0.0008700924
0.00056380076
7.7622254e-05
0.00026759165
0.00040476391
8.6087526e-05
3.5086846e-05
5.5685063e-05
0.00027383993
0.00046813863
0.0005055093
0.0005050665
0.00070301789
0.00010085954
0.00011579937
8.4025304e-05
0.00033697996
0.00038303593
0.00020527705
0.00013924409
1.5003896e-05
5.3203032e-05
3.9019866e-05
1.4459521e-05
8.4271606e-06
5.1963587e-05
0.00023754787
0.00025028885
0.00017061567
0.00010545849
6.5504052e-05
0.00021017639
0.00012340639
0.00030403831
0.00052289278
0.00025884788
0.00017176193
0.0004009536
0.00067217326
0.00053578177
0.00011477421
0.00023491909
0.00047538755
0.00010510258
6.5967086e-05
0.0001300589
0.00019737844
0.00029950881
0.00054834925
0.00078120887
0.00074210679
0.00021162461
6.9188797e-06
1.3213586e-05
0.00045781395
0.00023789709
0.00017713132
0.00025493487
7.1949914e-05
0.00048031725
0.00025721354
7.2577313e-06
2.3852858e-05
9.3809162e-05
0.00026572348
0.00032313611
0.00029022531
0.00020805232
0.00015338929
0.00028924751
0.00057221351
0.00085617467
0.0017776543
0.00086604344
0.00018012143
0.00029326633
0.00057007479
0.00050068757
0.00017438514
0.00024330668
0.00047363719
0.00013435743
0.00010104271
0.00021731164
0.00010253678
0.00012852565
0.00050682783
0.001019123
0.00091303979
0.0021650497
8.0399683e-06
3.1987928e-05
0.00037279003
0.00019681832
0.00010606646
0.0003192533
0.00017219877
0.00075422811
0.00080242103
0.00014602908
2.3955108e-05
0.00026234167
0.00034941112
0.00038739887
0.00041240521
0.00032270391
0.00028071074
0.00051105127
0.00080683689
0.00045478766
0.00099205347
0.0023963577
0.00050212542
0.00027689782
0.00055931444
0.00050159992
0.00027344748
0.00033691622
0.0004984797
9.454297e-05
0.00010742398
0.00022906543
8.2323449e-05
0.00010730589
0.00058329713
0.0011101224
0.00063047348
0.0010417117
0.00023902782
0.0011355645
0.00012449384
0.00013694949
3.7567077e-05
9.6711191e-05
0.00012901755
0.00058099329
0.00064429361
0.00016282837
3.4555828e-05
0.00080653461
0.00040972885
0.00044581253
0.00049938107
0.00034689214
0.00036762627
0.00086588734
0.0012986107
0.00090940411
0.00046674749
0.0010498485
0.0013546527
0.00029264362
0.00050871593
0.00057803101
0.00042125208
0.00019959046
0.00075482104
5.4786139e-05
0.00022178996
0.00017369445
8.9906234e-05
0.00014695964
0.00088909033
0.00097698389
0.00045764292
0.0011369971
0.0013000133
8.6333196e-06
6.0346854e-05
7.690461e-05
6.682271e-05
0.00074427055
0.00056980238
0.0007817331
0.00027032824
3.5431665e-06
0.00021396097
0.0005281566
0.00031814245
0.00058777604
0.000450408
0.00020524617
0.0003823076
0.0010497816
0.0013798478
0.0010566221
0.00076917085
0.00067056579
0.00039060996
0.00030381708
0.00028566542
0.00061366961
0.00011776569
0.0002207182
0.0005289677
0.00086122944
0.00046139863
0.00015116306
0.00036072945
0.00058021128
0.00080687274
0.00034668822
0.0024013031
0.00085126132
6.6727813e-06
3.757527e-06
3.5126616e-09
4.7196998e-09
7.486112e-11
1.669592e-09
1.5634262e-09
1.4208542e-11
7.1532292e-10
2.8305868e-10
3.0992188e-11
1.3409173e-09
4.4095396e-09
7.2786331e-09
5.581525e-09
1.0099773e-09
1.4262507e-11
6.8038336e-10
1.1302788e-09
1.2440265e-09
7.5250896e-10
1.0687847e-10
3.4181202e-13
4.802159e-11
2.9838699e-10
4.7105657e-10
3.2399115e-10
1.0266124e-10
7.2355577e-12
1.3413797e-11
1.1468357e-10
6.773439e-11
5.1512042e-11
1.3074297e-10
3.1628773e-10
6.0608381e-10
7.398267e-10
3.7984778e-10
2.5085194e-10
6.7732858e-10
4.7635898e-08
4.6498467e-08
2.7710051e-10
2.2877967e-08
1.3089968e-08
3.9800159e-10
7.1502428e-09
1.4567776e-09
1.3952434e-09
2.489916e-08
7.0249803e-08
1.0968887e-07
8.2236319e-08
1.3092539e-08
4.802307e-10
1.5718982e-08
2.5962631e-08
2.3297597e-08
1.1449053e-08
1.8768778e-09
3.3048687e-11