/*--------------------------------*- C++ -*----------------------------------*\
| =========                 |                                                 |
| \\      /  F ield         | OpenFOAM: The Open Source CFD Toolbox           |
|  \\    /   O peration     | Version:  2012                                  |
|   \\  /    A nd           | Website:  www.openfoam.com                      |
|    \\/     M anipulation  |                                                 |
\*---------------------------------------------------------------------------*/
FoamFile
{
    version     2.0;
    format      ascii;
    class       volScalarField;
    location    "0";
    object      p;
}
// * * * * * * * * * * * * * * * * * * * * * * * * * * * * * * * * * * * * * //

dimensions      [0 2 -2 0 0 0 0];


internalField   nonuniform List<scalar> 
155952
(
7.3541974e-06
1.6829134
3.2194335
2.0929438
0.87897406
1.9315176
3.241269
3.188574
2.3823355
2.3200806
2.7033661
2.0638772
0.91760379
-0.31138642
-1.215892
0.10343992
1.9404722
2.1524422
1.3630886
0.8599919
1.2117258
2.0651122
2.0595273
1.4972306
1.0102
0.71408153
0.76694575
0.76775022
0.53555618
1.5501983
2.8550725
2.9616596
2.4067899
2.3951649
1.3050647
0.20488728
0.34214328
0.2996065
-0.0012205418
1.6802284
3.2173477
2.0925844
0.87810989
1.9284743
3.2367643
3.1841034
2.3788309
2.3175114
2.7011027
2.0614325
0.91426698
-0.31527982
-1.2208501
0.096807377
1.9346251
2.1495286
1.3624427
0.85998442
1.2119466
2.0656609
2.0607012
1.498864
1.01142
0.71466881
0.76740345
0.76859162
0.53643829
1.5500794
2.8540975
2.9603069
2.404989
2.3933751
1.304607
0.2052141
0.34236491
0.29957739
-0.0030651518
1.6769103
3.2153686
2.0923375
0.87622596
1.9243815
3.2317091
3.1793942
2.3752935
2.3149682
2.699173
2.0587173
0.9097739
-0.32062646
-1.2272949
0.089480531
1.9291915
2.147395
1.3621871
0.86011017
1.2122865
2.0664039
2.0621876
1.5006319
1.01271
0.71533928
0.76795737
0.76944374
0.53703038
1.549607
2.8528826
2.9586407
2.4024181
2.3915209
1.3044709
0.20551981
0.34239265
0.29922762
-0.0051824235
1.6737256
3.2139863
2.0921065
0.87315875
1.9196967
3.2271163
3.1755412
2.3725014
2.3131041
2.6978447
2.0559082
0.90458462
-0.32663172
-1.2341545
0.082745143
1.9254284
2.1467749
1.3624971
0.8601847
1.2126476
2.067356
2.0638095
1.5022119
1.013586
0.71566943
0.76828713
0.77014451
0.53727363
1.5488135
2.851656
2.9570002
2.3996824
2.3902702
1.3048899
0.20563873
0.34208789
0.29867565
-0.007484342
1.6707232
3.2132038
2.0917846
0.86885156
1.9143937
3.2228992
3.172425
2.3703366
2.3118371
2.6969769
2.0528525
0.89851366
-0.33340554
-1.2415334
0.076263299
1.922986
2.1474955
1.3632542
0.8601386
1.2129898
2.0685317
2.0655712
1.5035735
1.0139616
0.71556611
0.76831134
0.77068206
0.53719601
1.54768
2.8504259
2.9554359
2.396849
2.3896884
1.3057856
0.20553166
0.34140583
0.29800744
-0.0099344857
1.6678288
3.2128939
2.0913325
0.86329861
1.9084172
3.2188432
3.1697622
2.3685938
2.3110357
2.6965171
2.0494691
0.89125583
-0.34129267
-1.2498049
0.069500745
1.9213563
2.1493057
1.3638895
0.85990262
1.2132658
2.0699005
2.0674521
1.5046829
1.0138233
0.71503259
0.76800835
0.77102523
0.53674417
1.5461372
2.8491717
2.9539497
2.39384
2.3897477
1.3072371
0.20517273
0.34028341
0.29721126
-0.012156072
1.6650068
3.2129732
2.0907817
0.85654884
1.9017649
3.2147887
3.1672966
2.3671003
2.3106526
2.6965159
2.0457834
0.88250934
-0.35071082
-1.2593836
0.061978741
1.9200727
2.1519756
1.3644349
0.85936684
1.2133857
2.0713905
2.0693835
1.5054743
1.0131529
0.71408486
0.76735539
0.77111374
0.53581386
1.5440895
2.8478861
2.9525666
2.3905856
2.3904513
1.3092726
0.20451388
0.33861207
0.29626843
-0.013944135
1.6622448
3.2133778
2.0902634
0.84872295
1.8944274
3.2105521
3.1647334
2.3656677
2.3107384
2.6970996
2.04194
0.87199616
-0.3621784
-1.2704301
0.053208092
1.918638
2.1552749
1.364802
0.85835787
1.2131927
2.0728819
2.0712683
1.5058787
1.0119426
0.71276311
0.76633915
0.77088738
0.53427973
1.5414079
2.8465594
2.9513335
2.3870309
2.3918186
1.3119303
0.20348125
0.33622277
0.29512616
-0.016139747
1.6595328
3.2137621
2.0900377
0.84003545
1.8863191
3.2058267
3.1616692
2.3640259
2.3111154
2.6984868
2.038248
0.85953469
-0.37630776
-1.2829998
0.042680662
1.9165253
2.159022
1.3647308
0.85662465
1.2124339
2.0741822
2.072982
1.5058382
1.0102073
0.71116636
0.76497355
0.77031835
0.53201327
1.5379219
2.8451593
2.9502784
2.3831253
2.3938709
1.3152728
0.20197261
0.33285818
0.2936434
-0.018757569
1.6568421
3.2139898
2.0904739
0.83081341
1.8772352
3.2000895
3.1575242
2.3617031
2.309867
2.7009957
2.0352222
0.84517571
-0.39372106
-1.2985697
0.029950144
1.9132429
2.1631737
1.3639572
0.85382821
1.2107227
2.0749885
2.0743535
1.5053025
1.0079795
0.70934718
0.76330563
0.76944835
0.52891424
1.5334167
2.8436201
2.9494328
2.3788159
2.3966322
1.3193876
0.19985398
0.32813544
0.29154266
-0.021916372
1.6540922
3.215633
2.0919647
0.82149161
1.8667842
3.1925456
3.1514766
2.358288
2.3099322
2.7050273
2.0335762
0.82934833
-0.4148609
-1.3175827
0.014688616
1.9084067
2.1677019
1.3622716
0.84954599
1.2075087
2.0748419
2.0751299
1.5042167
1.0053042
0.7066706
0.76141408
0.7684181
0.52496792
1.527639
2.841838
2.9493145
2.3740389
2.4001291
1.324393
0.19696069
0.32151037
0.28840817
-0.025992057
1.6510871
3.2185487
2.0948021
0.81260637
1.8543963
3.182174
3.1424092
2.3532118
2.3110901
2.7111094
2.0341481
0.81295781
-0.43994072
-1.3402031
-0.0032650914
1.9018059
2.1703629
1.3595298
0.84330058
1.2020742
2.0730892
2.0749118
1.5025015
1.0022494
0.70396837
0.75934834
0.76745751
0.52032279
1.5203194
2.8396498
2.9500533
2.3687297
2.4043885
1.3304392
0.19310618
0.3122604
0.28343976
-0.03167612
1.647442
3.22263
2.099077
0.80476015
1.8389734
3.1678377
3.1289453
2.3456399
2.3122609
2.7200187
2.0378089
0.79736684
-0.46914171
-1.3662788
-0.023871561
1.8934187
2.1720366
1.3556275
0.83461277
1.1935755
2.0688863
2.073171
1.5000158
0.99889136
0.70130149
0.75707644
0.76681418
0.51536097
1.5112064
2.836808
2.9502005
2.3628421
2.4094169
1.3376946
0.18809622
0.29950719
0.27570382
-0.039984996
1.6425955
3.2276201
2.104738
0.79794934
1.8211131
3.1480916
3.1096663
2.3345272
2.3138276
2.7323231
2.0455109
0.78416204
-0.50209812
-1.3956574
-0.046918738
1.883251
2.1731127
1.3504989
0.82306459
1.1811325
2.061256
2.0701503
1.4964894
0.99521525
0.69861431
0.75422848
0.76657496
0.5107106
1.5001091
2.8329963
2.94975
2.3563001
2.4151551
1.3463097
0.18174185
0.28229485
0.26404581
-0.05224599
1.6354358
3.2329374
2.1119212
0.79056767
1.8035287
3.1201551
3.0834533
2.318633
2.3152344
2.7460673
2.0584735
0.77464422
-0.53573376
-1.4287264
-0.072203893
1.8710931
2.1733568
1.344072
0.80834417
1.1639468
2.0492013
2.0640681
1.4914647
0.99106823
0.69570217
0.7504702
0.76679225
0.50719583
1.4869362
2.8278525
2.9486918
2.3490844
2.42146
1.3563633
0.17386017
0.25972573
0.24707307
-0.070122464
1.6243292
3.2374343
2.1211692
0.7800709
1.7865875
3.0851782
3.0501223
2.2964551
2.3155977
2.7658967
2.0781049
0.76970612
-0.56367955
-1.4650379
-0.099936354
1.8562248
2.1720686
1.336139
0.79024971
1.1414078
2.0318676
2.0542526
1.4843762
0.98643271
0.69196226
0.74496594
0.76756875
0.50565445
1.4717303
2.8209486
2.9469581
2.3421177
2.427935
1.3678452
0.16427868
0.23111891
0.2230383
-0.09577371
1.6070826
3.2391799
2.1332481
0.76386777
1.7686314
3.0493694
3.0108504
2.265516
2.3139082
2.7917579
2.1055461
0.77094922
-0.58029563
-1.5013216
-0.13134132
1.8362766
2.1679086
1.3262047
0.76865412
1.1131502
2.0086925
2.0402654
1.4749568
0.98123572
0.68702798
0.73752451
0.76701859
0.50678445
1.4546149
2.8117588
2.9444535
2.332791
2.4340885
1.3803623
0.15293495
0.19608701
0.19038223
-0.13195892
1.5808582
3.2354131
2.1485952
0.74058247
1.7491478
3.0083725
2.9652405
2.2266465
2.3088327
2.8233962
2.1407515
0.78083589
-0.58398484
-1.5328603
-0.1690716
1.803443
2.1586677
1.3134247
0.7434659
1.0790615
1.9794793
2.0220363
1.4632284
0.97552127
0.68122846
0.72779342
0.76398521
0.51501195
1.4358172
2.7996483
2.9410669
2.3214552
2.4393217
1.3933572
0.14014989
0.15449446
0.14802144
-0.18144715
1.5420432
3.2225104
2.1665246
0.71179246
1.7253497
2.958388
2.9143276
2.1796991
2.2984968
2.8599748
2.1778946
0.8004425
-0.57498976
-1.5552483
-0.21596828
1.7559294
2.1401518
1.2967812
0.71465179
1.0392719
1.9443747
1.9999007
1.449665
0.96967519
0.67457876
0.71521855
0.75747176
0.52425096
1.4146617
2.7838312
2.9366203
2.3082132
2.4430406
1.4058134
0.12662725
0.10641393
0.09537818
-0.2463585
1.4867309
3.1951993
2.1845261
0.68161051
1.6927383
2.9008513
2.8607542
2.1259814
2.2804532
2.9002791
2.2213009
0.82880174
-0.55111035
-1.5656936
-0.27565565
1.6868451
2.0995635
1.2756008
0.68243751
0.99417424
1.9037786
1.9745114
1.4352286
0.96454183
0.66728868
0.69945197
0.74656846
0.53290036
1.3919493
2.7635636
2.9307854
2.2935291
2.4447616
1.4164161
0.11254564
0.052577523
0.031746952
-0.33068112
1.4122838
3.1543852
2.1981328
0.65535233
1.6491363
2.835715
2.804896
2.066721
2.2513822
2.9422736
2.273907
0.86424389
-0.5067852
-1.556005
-0.3525873
1.5884795
2.035986
1.2500242
0.64792774
0.9445074
1.8582489
1.9466114
1.4212243
0.9614632
0.66004184
0.68049652
0.73069075
0.53844673
1.3720833
2.7384606
2.9230167
2.277989
2.444068
1.4239251
0.096957563
-0.0050824544
-0.045012062
-0.4421004
1.31713
3.0968623
2.2028467
0.63752984
1.5955023
2.76317
2.7364838
2.0019745
2.2049595
2.9825656
2.3395544
0.90552766
-0.43693636
-1.5329423
-0.45064512
1.4544608
1.9538987
1.2197937
0.61351173
0.8915023
1.8084469
1.9167935
1.4089132
0.962136
0.6540901
0.65874296
0.70986661
0.53884533
1.3570404
2.7069946
2.9123719
2.26209
2.4407811
1.4275695
0.078889664
-0.064601974
-0.13518572
-0.58028337
1.1979326
3.0217675
2.1971023
0.63110693
1.5345876
2.6839403
2.6462184
1.9297333
2.1449854
3.0178188
2.4179751
0.95442784
-0.34255467
-1.5014672
-0.57096426
1.2821804
1.8490904
1.182927
0.58159612
0.83691522
1.7551286
1.8853681
1.3990229
0.9682321
0.6511154
0.63484487
0.68475754
0.53334283
1.3437524
2.6696786
2.8977512
2.2460184
2.4347722
1.4270871
0.058688278
-0.12463956
-0.23290228
-0.7308519
1.0532269
2.9289539
2.1806188
0.63707194
1.471334
2.6000083
2.5273344
1.8511717
2.066833
3.0440556
2.5058305
1.0129173
-0.22984955
-1.4636158
-0.71022672
1.0739474
1.7210267
1.1379979
0.55428578
0.78289596
1.6991625
1.8523954
1.3915211
0.98089905
0.65300187
0.60997818
0.65637794
0.52230093
1.3291218
2.6330394
2.8788359
2.2290215
2.4258756
1.4226155
0.038006833
-0.18283181
-0.32954953
-0.87942688
0.89072265
2.8207666
2.1536191
0.65452878
1.412639
2.513867
2.3783283
1.7616594
1.9651728
3.0539191
2.6006271
1.0844277
-0.10791797
-1.419492
-0.86076002
0.83781687
1.5729564
1.0958051
0.53429131
0.73189721
1.6415776
1.8178244
1.3855221
0.99982377
0.66167156
0.58519684
0.62566319
0.5066438
1.3125654
2.5999969
2.8550348
2.2103165
2.4136865
1.4138439
0.019251139
-0.23542687
-0.41880398
-1.0181572
0.7235019
2.7022411
2.1171271
0.68129949
1.3655111
2.4282257
2.2030674
1.6549187
1.8344407
3.0374394
2.6997199
1.1706466
0.013156783
-1.367715
-1.0123892
0.58656141
1.4124842
1.0610424
0.5239776
0.68687587
1.583607
1.7816048
1.3796694
1.0186495
0.67885032
0.56171793
0.59326349
0.48746396
1.2943639
2.5648626
2.8250124
2.1888872
2.3973903
1.395646
0.0051666971
-0.27845534
-0.49610129
-1.1403828
0.56194259
2.5796174
2.0722489
0.7144627
1.3325849
2.3454573
2.0146234
1.5205514
1.6687553
2.9887222
2.8001437
1.2727396
0.12343898
-1.3044461
-1.1539678
0.33479718
1.2503393
1.0391923
0.52203201
0.65157469
1.5266846
1.7437327
1.372675
1.0448844
0.70554602
0.54084116
0.55967709
0.46569008
1.2744751
2.5237196
2.7873546
2.1639118
2.3761467
1.3817638
-0.0016562172
-0.30949264
-0.55677041
-1.2387429
0.4148761
2.4599912
2.0267027
0.75084774
1.3093884
2.2673603
1.8395745
1.3488274
1.4789667
2.9085113
2.8970667
1.3848688
0.21537459
-1.22074
-1.2740325
0.09354542
1.0968517
1.0339123
0.54421964
0.62990479
1.4723538
1.7043022
1.3635352
1.0762355
0.74142342
0.52387645
0.52548983
0.44223037
1.2524846
2.4676424
2.741471
2.1349641
2.3488812
1.3725322
0.0011286585
-0.32886721
-0.59637026
-1.3043804
0.29232978
2.3515016
1.9833256
0.78788402
1.2897918
2.195498
1.7070817
1.1380922
1.2632368
2.7887049
2.9819747
1.4983319
0.2863017
-1.129664
-1.3629175
-0.1265246
0.95928018
1.0453421
0.5909733
0.62413472
1.4220537
1.6636078
1.3514296
1.1097625
0.78452256
0.51223528
0.49139219
0.41813873
1.2281788
2.4018622
2.6885754
2.102217
2.3142699
1.3680328
0.019148702
-0.33808383
-0.61278901
-1.3295695
0.20482348
2.263374
1.9463094
0.82401762
1.2761801
2.1284811
1.6348928
0.90356712
1.029593
2.6230504
3.0419815
1.604998
0.33816705
-1.0270473
-1.4141943
-0.30943524
0.83894845
1.0693232
0.65680492
0.63363947
1.3768571
1.6222917
1.3361511
1.1420451
0.82881764
0.50707376
0.45802002
0.39451693
1.2021153
2.3302205
2.6292755
2.0663278
2.2717794
1.367643
0.051064175
-0.33820732
-0.60768058
-1.3127804
0.16099854
2.20645
1.9240551
0.85796943
1.2675973
2.0631924
1.6234206
0.6783704
0.80004609
2.4089805
3.0611753
1.701997
0.37702602
-0.91438769
-1.424796
-0.4468168
0.7365234
1.0994654
0.73264188
0.65503898
1.3371541
1.5813717
1.3184231
1.1702437
0.88214765
0.51076091
0.42596076
0.37252937
1.175088
2.2593255
2.5622438
2.0283211
2.2218177
1.370535
0.095188982
-0.32796623
-0.58693206
-1.2632358
0.16447915
2.1940893
1.9262668
0.88658892
1.2631968
1.9955582
1.6522576
0.50627122
0.5772619
2.1422325
3.0269107
1.7908774
0.41455384
-0.79740243
-1.3940313
-0.540567
0.65545837
1.128747
0.80884153
0.68357545
1.3024643
1.5420652
1.2999406
1.1945048
0.94034268
0.52414946
0.39603854
0.35335937
1.1482133
2.1889174
2.4871815
1.989137
2.1647834
1.3757559
0.15066851
-0.30093263
-0.55940031
-1.2007419
0.20130839
2.2342441
1.9492508
0.91315472
1.2675845
1.9264528
1.6930937
0.41893123
0.35989453
1.8209515
2.9539639
1.8710884
0.45829331
-0.68003683
-1.3120979
-0.59138902
0.59273905
1.1518179
0.87507195
0.71234868
1.2709719
1.5053228
1.2831416
1.2149021
0.9974353
0.54859271
0.36957249
0.33830447
1.1227378
2.1198
2.4057465
1.9493898
2.0995483
1.3821877
0.21563818
-0.25941622
-0.52529928
-1.1417034
0.23335543
2.2845552
1.9950606
0.95941512
1.2831294
1.861594
1.7242006
0.42195948
0.16319935
1.5171422
2.8408669
1.9450723
0.51053575
-0.55361854
-1.2023156
-0.59877775
0.54519081
1.166733
0.92437931
0.73245382
1.2387791
1.4710169
1.2701262
1.2317853
1.0556016
0.5843853
0.34813709
0.32891158
1.1000268
2.054013
2.3203593
1.9098916
2.0219439
1.3887243
0.28791806
-0.20075475
-0.48381164
-1.0827326
0.22715705
2.287932
2.0473935
1.0221762
1.3115388
1.8111553
1.7360712
0.49923875
0.0070861348
1.2592547
2.6920092
2.0076351
0.56687831
-0.44113319
-1.0750326
-0.56833664
0.51472601
1.1741107
0.95737814
0.73759149
1.2006984
1.4374071
1.2617454
1.2462053
1.1096852
0.62367133
0.33265243
0.32678839
1.081582
1.9933125
2.2325715
1.870963
1.9487353
1.3943572
0.36462102
-0.12435988
-0.41569551
-0.995195
0.17984607
2.2316782
2.0820871
1.0888651
1.3558155
1.7787334
1.7306292
0.62187551
-0.082781105
1.0658675
2.5203038
2.0510422
0.62065682
-0.34093367
-0.93958895
-0.50434633
0.50181549
1.1760906
0.97927998
0.72720129
1.1520197
1.4016698
1.2574064
1.2592671
1.1571973
0.66551221
0.32231345
0.33311435
1.0688414
1.9390899
2.1463405
1.8315091
1.8811363
1.3985735
0.44197854
-0.032605398
-0.32740769
-0.88525414
0.11338389
2.1153173
2.0845244
1.1500353
1.4087249
1.7575588
1.7132471
0.75921296
-0.085145252
0.94106752
2.3482076
2.0673594
0.66833404
-0.25503314
-0.80384102
-0.41655852
0.5043359
1.1756703
0.99047717
0.70293917
1.0892657
1.3601072
1.2554439
1.2711501
1.1975349
0.70574113
0.3147361
0.34813059
1.0630865
1.8924504
2.0653419
1.7898639
1.8171183
1.4002688
0.51570455
0.068162379
-0.21840089
-0.73935564
0.052077191
1.9380137
2.0453014
1.2046891
1.4501304
1.7359401
1.6841473
0.88184165
-0.0024043459
0.91149273
2.2008236
2.0541562
0.70514539
-0.1830779
-0.65383985
-0.31806282
0.51927522
1.1704067
0.99230678
0.66622529
1.0083818
1.3091277
1.2535057
1.2825443
1.2309526
0.74133522
0.30847854
0.37109511
1.0656257
1.8543253
1.9907625
1.7442892
1.7534284
1.3977296
0.58166093
0.16853157
-0.10046054
-0.59697508
0.02006879
1.771093
2.0025121
1.2498145
1.4305662
1.7092714
1.6419615
0.96360185
0.13724698
0.9773769
2.097055
1.9973438
0.72553055
-0.12230689
-0.52632435
-0.21837222
0.54537323
1.1663433
0.98818998
0.6173421
0.91143455
1.2459151
1.2485932
1.2943056
1.2582074
0.77036214
0.30940811
0.40032632
1.0778886
1.826132
1.9229622
1.692746
1.6863962
1.3891095
0.63705559
0.26088777
0.013557047
-0.46251844
0.046208932
1.6431966
1.9603025
1.2806606
1.416134
1.6819969
1.5970028
0.99350121
0.28032957
1.1009633
2.0381462
1.9141028
0.72710764
-0.071434334
-0.4152363
-0.1178467
0.57251174
1.1601725
0.9755521
0.56268004
0.8139028
1.1764341
1.2399246
1.3070923
1.28046
0.79215819
0.35430225
0.43272894
1.1008435
1.8099788
1.8644177
1.633971
1.6128661
1.3700945
0.68072913
0.34189844
0.11745348
-0.3383625
0.11698605
1.5739935
1.8979145
1.2960408
1.3993694
1.6566157
1.5603959
0.99290382
0.41438746
1.2307196
2.010552
1.8065144
0.71241952
-0.027972478
-0.31644179
-0.027589829
0.59439443
1.1491653
0.96369074
0.52359672
0.73347511
1.1121453
1.230202
1.3215941
1.2977042
0.80796321
0.41511315
0.46469462
1.1336829
1.807598
1.8200618
1.5713777
1.5313643
1.3380658
0.71298683
0.41058185
0.20938637
-0.22515266
0.23558847
1.5655881
1.8374481
1.2952375
1.3758791
1.6275308
1.5366858
0.99289879
0.54926374
1.3404473
2.0009171
1.7098915
0.68930607
0.01140346
-0.22672597
0.047214222
0.60391339
1.139073
0.96815315
0.51618923
0.67774511
1.0577313
1.2220167
1.3383124
1.3085855
0.81845507
0.43842096
0.49399579
1.173799
1.8190799
1.7950349
1.5148668
1.4459444
1.2928454
0.73496503
0.46487109
0.28733533
-0.12299341
0.35706198
1.5894017
1.789111
1.2780299
1.3457143
1.5918802
1.5205148
1.0116038
0.65311505
1.4180993
1.9874521
1.6240695
0.66385585
0.045022763
-0.14411652
0.11632265
0.60826832
1.1332145
0.99304583
0.5438162
0.64920561
1.0145671
1.2168784
1.3576725
1.313323
0.8244717
0.42877864
0.51964164
1.217887
1.8422223
1.7911561
1.4743975
1.3663235
1.2430425
0.75367524
0.50417317
0.348522
-0.030765841
0.46840289
1.6315502
1.7543275
1.2457593
1.3090815
1.5541228
1.5083216
1.0473351
0.73311852
1.4438988
1.9432896
1.5382275
0.63850981
0.085277911
-0.054024395
0.18045966
0.61305329
1.1329837
1.0380282
0.60271805
0.65529631
0.98524133
1.2163163
1.3797992
1.3143483
0.82711567
0.38829585
0.54160819
1.2619734
1.8720886
1.8057034
1.4555291
1.3027392
1.2058028
0.77986726
0.53197193
0.39473653
0.050541618
0.56832738
1.6828482
1.7300837
1.2008821
1.2653444
1.5224249
1.5010014
1.0861966
0.78588035
1.4197371
1.8607441
1.4529556
0.62316693
0.13606365
0.045529917
0.24480605
0.63591233
1.1378102
1.0991136
0.69179655
0.69022609
0.97038652
1.2221574
1.4037963
1.3143245
0.82608376
0.36128937
0.56249733
1.3031165
1.901371
1.8298602
1.4574994
1.2664874
1.1969578
0.81752737
0.55432888
0.42946494
0.12172851
0.66239223
1.7406224
1.7123827
1.1460076
1.2133647
1.4995434
1.5005903
1.1193276
0.81551846
1.3559526
1.7510942
1.3725924
0.63230345
0.2024373
0.15244882
0.31112882
0.64856449
1.1396943
1.1663336
0.80475751
0.75477245
0.97680744
1.2365978
1.4288934
1.3141517
0.82144038
0.32782996
0.58863428
1.3449736
1.9267079
1.8517566
1.469879
1.2563989
1.2233837
0.874786
0.58078966
0.45163553
0.1847917
0.7596895
1.8053698
1.7000287
1.0827589
1.1530813
1.483346
1.5075392
1.1445768
0.83156083
1.2672143
1.6331442
1.3106507
0.66642312
0.2800084
0.24338015
0.36976668
0.65493791
1.1170347
1.2183054
0.92684843
0.84557806
1.006072
1.2600573
1.4548873
1.3139025
0.81938355
0.31038913
0.62435293
1.3922844
1.9491189
1.8648003
1.4772569
1.2552844
1.2704909
0.95143903
0.6171941
0.46400519
0.24956445
0.86526615
1.8771609
1.6973305
1.0204417
1.0813378
1.4634149
1.5162038
1.1618659
0.84092539
1.1705556
1.5008016
1.2647529
0.71594227
0.3588199
0.31482338
0.40852284
0.64327981
1.0523402
1.22868
1.0378341
0.95385631
1.0563095
1.2859161
1.4802484
1.3120611
0.82975821
0.31704927
0.67076035
1.4453578
1.9643301
1.8676169
1.4731773
1.247816
1.3016467
1.0368501
0.66248732
0.47598042
0.32833838
0.97829575
1.9499637
1.7088166
0.97485085
1.0036672
1.4277646
1.5105401
1.1700821
0.84834035
1.0908356
1.3713618
1.219746
0.76714561
0.43430828
0.36702704
0.41429926
0.6086171
0.95003907
1.1819618
1.1121726
1.0619456
1.1241396
1.3212263
1.5023295
1.3053135
0.80571593
0.33937534
0.72869622
1.5030894
1.9649367
1.8585185
1.4518944
1.229723
1.3201663
1.1194043
0.72277695
0.5018496
0.42579489
1.0891859
2.0100534
1.7288583
0.9551571
0.92540946
1.3757769
1.4821312
1.1674376
0.85891522
1.0354616
1.2574279
1.1623269
0.79667271
0.50022464
0.40866755
0.41545935
0.5665066
0.83857864
1.0975523
1.1397977
1.1481686
1.2000299
1.3654111
1.5190587
1.2934732
0.7684801
0.37401072
0.79388862
1.5585854
1.94717
1.8131997
1.4105187
1.1942482
1.3283472
1.2182163
0.8074484
0.55434028
0.53714796
1.187494
2.0449636
1.736214
0.94382675
0.8342105
1.3046381
1.436636
1.1571192
0.8785817
1.0045832
1.1649909
1.0921466
0.79173259
0.54673692
0.45672432
0.44372572
0.52622291
0.75981955
1.0090204
1.1242729
1.1987936
1.2689808
1.4133782
1.5312844
1.2788044
0.75333122
0.42194709
0.85922169
1.5950647
1.904735
1.7355323
1.3524252
1.1306602
1.3239201
1.3308069
0.9210299
0.62619586
0.64341295
1.2596345
2.0407545
1.714056
0.92276824
0.82699676
1.2398715
1.3882826
1.1465391
0.90596722
0.99545904
1.0899396
1.0178697
0.75783248
0.56694657
0.51179122
0.50353297
0.5456722
0.72107635
0.94851592
1.09192
1.2168089
1.3205921
1.4553774
1.5353268
1.2630376
0.75212296
0.48640185
0.92494004
1.6038853
1.8289454
1.6366132
1.2682548
1.0321022
1.3203922
1.4560717
1.0355617
0.70063069
0.71798922
1.2794973
1.9862191
1.6687674
0.90472072
0.85726657
1.2035717
1.3534399
1.1409592
0.93852798
1.0014494
1.03535
0.94284601
0.70019064
0.56608944
0.57931659
0.58995213
0.59468091
0.71766036
0.92149648
1.0626412
1.2190594
1.3548252
1.4855036
1.5233142
1.2299259
0.74474878
0.56621377
0.99750278
1.5941183
1.7363838
1.5136062
1.1592366
0.90101576
1.3454432
1.5933552
1.136194
0.76176654
0.75126425
1.2432679
1.8841177
1.6136751
0.91543505
0.87890123
1.2199491
1.346942
1.1457779
0.97593525
1.0154866
0.99750495
0.86258633
0.60911794
0.53132649
0.63760781
0.68440615
0.63841844
0.70568528
0.8937757
1.0368891
1.2204053
1.3721941
1.4934255
1.4892263
1.1846246
0.72124147
0.65383132
1.0873445
1.5741328
1.6141429
1.348718
1.006857
0.76190899
1.4298764
1.7467556
1.2323634
0.80744849
1.1172188
2.5025767
2.9370507
1.7333416
0.88342598
1.840065
3.1613172
3.2099118
2.0223793
1.2617344
1.3457041
1.2400581
0.71976738
-0.41708306
-1.4353856
-1.0544698
0.13014204
1.0741718
1.3160402
0.95325873
0.9582865
1.5234313
1.6787341
1.2972385
0.79655674
0.45590195
0.55221668
0.94026851
1.2467938
1.6644568
2.3836086
2.8649348
2.8852211
2.7243187
1.9562288
0.91545043
0.58865795
0.61402535
1.1155749
2.500926
2.9384005
1.7374889
0.88703214
1.8403261
3.1593177
3.2087708
2.023809
1.264895
1.3497486
1.2447701
0.72457077
-0.41395741
-1.4354149
-1.0564915
0.12758573
1.0719151
1.3149705
0.95367443
0.95946214
1.5246749
1.6799018
1.2980806
0.79701194
0.45595652
0.55182577
0.93916521
1.2457484
1.6642895
2.3837712
2.8645567
2.8839526
2.7226678
1.9552009
0.91561245
0.58927943
0.61391198
1.1139489
2.4999378
2.9409762
1.7423844
0.89064614
1.8403563
3.1574144
3.2083205
2.0258561
1.2686982
1.3542911
1.2498764
0.72954762
-0.41120827
-1.436183
-1.0592203
0.12447921
1.0695697
1.3143364
0.95459302
0.96090439
1.5259751
1.6808831
1.298693
0.79716365
0.45566523
0.55105107
0.93784851
1.2449181
1.6643895
2.3839896
2.8640907
2.88241
2.720838
1.954472
0.91628845
0.59019583
0.61381117
1.1124701
2.5000751
2.9448718
1.7471269
0.89314032
1.8398882
3.1560714
3.2090149
2.0286415
1.272631
1.3586288
1.2544226
0.73336056
-0.4101039
-1.4383424
-1.0623866
0.12158618
1.0678979
1.3145847
0.95605923
0.9623546
1.5269152
1.6812867
1.298677
0.79687468
0.45502644
0.55000679
0.93640708
1.2443622
1.6647432
2.3842298
2.8635526
2.8807339
2.7192026
1.9544457
0.91758359
0.59123812
0.61352074
1.1110197
2.5014
2.9497409
1.751631
0.89426043
1.8387878
3.1552768
3.2109561
2.0322602
1.2766533
1.3626549
1.2581741
0.73557328
-0.41093721
-1.4420679
-1.0660931
0.11885941
1.0668647
1.3156914
0.9580515
0.96376451
1.5274075
1.6810027
1.297926
0.79614052
0.45405547
0.54873137
0.9347857
1.2439835
1.6652907
2.3844598
2.8629029
2.8788542
2.7177569
1.9551941
0.91957828
0.59239286
0.61292822
1.1095192
2.504031
2.9561942
1.7558815
0.89376331
1.8368783
3.1549898
3.2142864
2.0367882
1.2806837
1.3661695
1.2607862
0.73565692
-0.41395115
-1.4474649
-1.0705083
0.11604748
1.0662512
1.3175368
0.96050632
0.96507794
1.527385
1.6799274
1.2963467
0.79494231
0.45277323
0.54724533
0.93294658
1.2437224
1.6659734
2.3846225
2.8620966
2.8766951
2.716469
1.9568164
0.92238816
0.59367771
0.61195646
1.1079144
2.508148
2.9645734
1.7598411
0.89129178
1.8338849
3.1551744
3.2192223
2.0423093
1.2845499
1.368833
1.2617631
0.73301918
-0.41953905
-1.4545263
-1.0757991
0.1128544
1.065785
1.319954
0.96330396
0.96618237
1.5267362
1.677924
1.2938093
0.79324295
0.45121842
0.54558901
0.93087637
1.2435327
1.6667072
2.3846244
2.8610835
2.8742016
2.7153395
1.9594424
0.92615128
0.59509484
0.61050764
1.1061199
2.5139251
2.9752046
1.7635508
0.88648709
1.8294146
3.1557203
3.2260106
2.0489258
1.2880575
1.3702497
1.2605893
0.72796158
-0.42819922
-1.4633936
-1.0821377
0.10891765
1.0650994
1.3226901
0.9662541
0.96691291
1.5253187
1.6748418
1.2901651
0.79099742
0.44946597
0.54382613
0.92857019
1.2433552
1.6673676
2.3843254
2.8597957
2.8713267
2.7143792
1.9632193
0.93101518
0.59662428
0.60844089
1.1039775
2.5214853
2.9884567
1.7671962
0.87912506
1.8229656
3.1563647
3.234873
2.0567888
1.2910538
1.3700211
1.2568273
0.719613
-0.44045486
-1.4741714
-1.0896924
0.1037955
1.0637045
1.3253854
0.96908831
0.96705426
1.5229712
1.6705353
1.2852641
0.78815255
0.44756361
0.54203662
0.92602694
1.2431181
1.6677888
2.3835256
2.8581343
2.8680264
2.7135944
1.9682911
0.93712663
0.59821705
0.60555367
1.1012175
2.5308579
3.0046825
1.771096
0.86923812
1.8139986
3.1566309
3.2457343
2.0661745
1.2934547
1.3677712
1.2501771
0.70756678
-0.45674898
-1.4869059
-1.0985829
0.096999897
1.0609984
1.3275793
0.97146223
0.96634034
1.5195171
1.6648814
1.2789712
0.78464699
0.44561252
0.54030305
0.92324854
1.2427468
1.6677709
2.3819513
2.8559512
2.8642582
2.7129833
1.9747804
0.94461524
0.59977714
0.6015544
1.0974071
2.541922
3.0241501
1.7756131
0.85716779
1.8020969
3.155814
3.2565288
2.0771348
1.2952999
1.363171
1.2404819
0.69231795
-0.47728558
-1.5014797
-1.1087994
0.088069594
1.0563109
1.3287382
0.97297211
0.96446106
1.5147702
1.657802
1.2711916
0.78041347
0.44437451
0.5386746
0.92023415
1.2421748
1.6670989
2.3792466
2.853027
2.8599748
2.7125359
1.982767
0.95356695
0.60113146
0.59602496
1.0919017
2.5543296
3.0469676
1.781019
0.84345136
1.7871772
3.1530241
3.2670973
2.0895416
1.2970835
1.3559826
1.227637
0.67564444
-0.50177695
-1.5175404
-1.1200925
0.07667642
1.0489718
1.3283083
0.97319116
0.96108271
1.508545
1.6493096
1.2619097
0.77538852
0.44309187
0.53712543
0.91696202
1.2413516
1.6655752
2.3749776
2.8490491
2.855105
2.7122316
1.9922612
0.96398862
0.60198851
0.58837377
1.0837554
2.5673977
3.0730037
1.787378
0.82850505
1.7696168
3.1473124
3.2766068
2.1029673
1.3000332
1.3461742
1.2114072
0.65572891
-0.52906722
-1.5349087
-1.1319496
0.062744976
1.0384122
1.3257849
0.97172577
0.95588481
1.5006716
1.639459
1.2512409
0.76954407
0.44171845
0.53569707
0.91337072
1.2402408
1.6630629
2.3686647
2.8436114
2.8495235
2.7120302
2.0031754
0.97577175
0.60189213
0.5777842
1.071676
2.5800738
3.1018028
1.7945186
0.81223337
1.7501384
3.1379236
3.2836722
2.1164877
1.3036803
1.3342508
1.1912869
0.63379479
-0.55686838
-1.5544107
-1.1438976
0.046512548
1.024248
1.3207833
0.96828211
0.94861116
1.4910222
1.6275365
1.239479
0.76297341
0.44026054
0.53445057
0.90937763
1.2388088
1.659527
2.3598383
2.8362135
2.8430433
2.7118529
2.015296
0.9886681
0.60018846
0.5631694
1.0539672
2.5916481
3.1324851
1.8020869
0.79383302
1.7293523
3.1244923
3.2868041
2.128565
1.3082678
1.3219936
1.1665915
0.61025779
-0.58265056
-1.5762766
-1.1557986
0.028384911
1.0063272
1.3130834
0.96272122
0.93912332
1.4795544
1.6148431
1.2271029
0.75596468
0.43872784
0.53315415
0.90480077
1.2370259
1.6550574
2.3481508
2.8262637
2.8352821
2.7115639
2.0282596
1.0022914
0.59603502
0.54315532
1.0284812
2.5983912
3.1636095
1.8096099
0.77194603
1.7070885
3.1071043
3.2845503
2.1373234
1.3138385
1.3095066
1.136784
0.58398346
-0.60597288
-1.5961921
-1.167011
0.0086099889
0.98465676
1.302621
0.95507533
0.92743552
1.4663404
1.6017195
1.2147348
0.74909612
0.43720489
0.5315121
0.89856915
1.234867
1.6498594
2.3334866
2.8131098
2.8248185
2.7109533
2.0415428
1.0161518
0.58848034
0.51611817
0.99263797
2.5984277
3.1930044
1.8164847
0.74512406
1.6819976
3.0863947
3.2757247
2.1417777
1.3195021
1.2977329
1.1018326
0.55257706
-0.62866303
-1.6068229
-1.1754154
-0.012294477
0.95912174
1.2894052
0.94550309
0.91370619
1.4515657
1.5885893
1.2031554
0.74324961
0.43599722
0.52937046
0.89037961
1.2318935
1.6442191
2.3160419
2.7961579
2.8136787
2.7097005
2.054479
1.0297203
0.57663086
0.48030732
0.94353968
2.5884229
3.2172478
1.8218943
0.71224182
1.6517815
3.0628668
3.2596176
2.1381769
1.3234585
1.288621
1.063081
0.51392006
-0.65258299
-1.6037359
-1.1776068
-0.030146805
0.92916739
1.2733349
0.93418603
0.89817405
1.435483
1.5759296
1.1932155
0.7395083
0.43576221
0.52681429
0.88011349
1.2254432
1.6383952
2.2962745
2.7750654
2.8011594
2.7073312
2.0663103
1.0425148
0.55991384
0.43407162
0.87827672
2.5642991
3.2292166
1.8246848
0.67263027
1.6142889
3.0365658
3.2353629
2.1251485
1.3234667
1.2858659
1.0270695
0.46737294
-0.67815953
-1.5838042
-1.172571
-0.048770314
0.89456331
1.2538959
0.92119253
0.88105462
1.4183111
1.5641884
1.1853384
0.73895733
0.43749816
0.52432251
0.86687357
1.2167208
1.6325571
2.2747011
2.7498495
2.7868832
2.7032845
2.076263
1.0542263
0.53835971
0.37624991
0.79454319
2.5215519
3.2308628
1.8232663
0.63148649
1.5684274
3.0075599
3.1989718
2.1019959
1.3174925
1.2892784
0.98977807
0.41384181
-0.70299922
-1.546781
-1.158966
-0.069357463
0.86116114
1.2300357
0.90635532
0.86243989
1.4001091
1.5536272
1.1800475
0.74244835
0.44233489
0.52278633
0.8504565
1.2027912