# Region      : all region0
# Cells       : 4225
# Volume      : 7.767199e+00
# Time        	volAverage(magSqr(U))
1             	4.978932e-01
2             	4.939674e-01
3             	4.895662e-01
4             	4.851082e-01
5             	4.806940e-01
6             	4.763449e-01
7             	4.720644e-01
8             	4.678524e-01
9             	4.637084e-01
10            	4.596310e-01
