/*--------------------------------*- C++ -*----------------------------------*\
| =========                 |                                                 |
| \\      /  F ield         | OpenFOAM: The Open Source CFD Toolbox           |
|  \\    /   O peration     | Version:  2012                                  |
|   \\  /    A nd           | Website:  www.openfoam.com                      |
|    \\/     M anipulation  |                                                 |
\*---------------------------------------------------------------------------*/
FoamFile
{
    version     2.0;
    format      ascii;
    class       volScalarField;
    location    "0";
    object      p;
}
// * * * * * * * * * * * * * * * * * * * * * * * * * * * * * * * * * * * * * //

dimensions      [0 2 -2 0 0 0 0];


internalField   nonuniform List<scalar> 
4225
(
0.497704
0.488582
0.470673
0.444633
0.411416
0.372241
0.328543
0.281924
0.234092
0.186802
0.141786
0.100694
0.0650335
0.0361107
0.014986
0.00243365
-0.00108612
0.00455566
0.0191522
0.0421684
0.0727607
0.109808
0.151951
0.197647
0.245219
0.292925
0.339015
0.3818
0.419712
0.451361
0.475587
0.491502
0.498523
0.496391
0.485186
0.465319
0.437516
0.402798
0.362437
0.317913
0.270857
0.222994
0.17608
0.131833
0.0918747
0.0576709
0.0304749
0.0112836
0.000800465
-0.000590314
0.00716228
0.0237741
0.0486362
0.0808372
0.119197
0.162309
0.208594
0.256354
0.303839
0.349309
0.391096
0.427669
0.457688
0.480052
0.493941
0.488582
0.47946
0.461551
0.435511
0.402295
0.363119
0.319421
0.272802
0.224971
0.17768
0.132664
0.0915725
0.0559118
0.0269889
0.00586422
-0.00668808
-0.0102079
-0.00456607
0.0100305
0.0330467
0.063639
0.100686
0.14283
0.188525
0.236098
0.283803
0.329893
0.372679
0.410591
0.44224
0.466465
0.48238
0.489401
0.48727
0.476065
0.456197
0.428394
0.393676
0.353315
0.308791
0.261735
0.213873
0.166958
0.122711
0.082753
0.0485492
0.0213532
0.0021619
-0.00832127
-0.00971205
-0.00195945
0.0146523
0.0395144
0.0717155
0.110075
0.153187
0.199472
0.247232
0.294717
0.340187
0.381974
0.418547
0.448566
0.47093
0.484819
0.470673
0.461551
0.443642
0.417602
0.384386
0.34521
0.301512
0.254893
0.207061
0.159771
0.114755
0.0736634
0.0380026
0.00907983
-0.0120449
-0.0245972
-0.028117
-0.0224752
-0.00787866
0.0151376
0.0457298
0.0827768
0.12492
0.170616
0.218189
0.265894
0.311984
0.35477
0.392681
0.42433
0.448556
0.464471
0.471492
0.46936
0.458156
0.438288
0.410485
0.375767
0.335406
0.290882
0.243826
0.195964
0.149049
0.104802
0.0648438
0.0306401
0.00344409
-0.0157472
-0.0262304
-0.0276212
-0.0198686
-0.00325677
0.0216053
0.0538064
0.0921661
0.135278
0.181563
0.229323
0.276808
0.322278
0.364065
0.400638
0.430657
0.453021
0.46691
0.444633
0.435511
0.417602
0.391562
0.358346
0.31917
0.275472
0.228853
0.181021
0.133731
0.0887148
0.0476233
0.0119626
-0.0169602
-0.0380849
-0.0506372
-0.054157
-0.0485152
-0.0339187
-0.0109025
0.0196898
0.0567368
0.0988804
0.144576
0.192149
0.239854
0.285944
0.328729
0.366641
0.39829
0.422516
0.438431
0.445452
0.44332
0.432116
0.412248
0.384445
0.349727
0.309366
0.264842
0.217786
0.169923
0.123009
0.0787616
0.0388038
0.00460004
-0.0225959
-0.0417872
-0.0522704
-0.0536612
-0.0459086
-0.0292968
-0.00443471
0.0277663
0.066126
0.109238
0.155523
0.203283
0.250768
0.296238
0.338025
0.374598
0.404617
0.426981
0.44087
0.411416
0.402295
0.384386
0.358346
0.325129
0.285954
0.242256
0.195636
0.147805
0.100514
0.0554984
0.0144069
-0.0212538
-0.0501766
-0.0713014
-0.0838537
-0.0873734
-0.0817317
-0.0671351
-0.0441189
-0.0135266
0.0235203
0.065664
0.11136
0.158932
0.206638
0.252728
0.295513
0.333425
0.365074
0.3893
0.405215
0.412235
0.410104
0.398899
0.379031
0.351229
0.316511
0.27615
0.231625
0.18457
0.136707
0.0897924
0.0455452
0.00558738
-0.0286164
-0.0558124
-0.0750037
-0.0854868
-0.0868776
-0.079125
-0.0625132
-0.0376511
-0.00545009
0.0329096
0.0760218
0.122306
0.170066
0.217552
0.263021
0.304809
0.341382
0.371401
0.393764
0.407654
0.372241
0.363119
0.34521
0.31917
0.285954
0.246779
0.20308
0.156461
0.10863
0.0613391
0.0163231
-0.0247684
-0.0604291
-0.0893519
-0.110477
-0.123029
-0.126549
-0.120907
-0.10631
-0.0832942
-0.0527019
-0.015655
0.0264887
0.0721843
0.119757
0.167462
0.213553
0.256338
0.29425
0.325899
0.350125
0.36604
0.37306
0.370929
0.359724
0.339856
0.312054
0.277336
0.236975
0.19245
0.145394
0.0975318
0.0506171
0.0063699
-0.0335879
-0.0677917
-0.0949877
-0.114179
-0.124662
-0.126053
-0.1183
-0.101689
-0.0768264
-0.0446254
-0.0062657
0.0368465
0.083131
0.130891
0.178376
0.223846
0.265633
0.302207
0.332225
0.354589
0.368478
0.328543
0.319421
0.301512
0.275472
0.242256
0.20308
0.159382
0.112763
0.0649315
0.017641
-0.027375
-0.0684665
-0.104127
-0.13305
-0.154175
-0.166727
-0.170247
-0.164605
-0.150009
-0.126992
-0.0964001
-0.0593531
-0.0172095
0.0284861
0.0760586
0.123764
0.169854
0.21264
0.250552
0.282201
0.306426
0.322341
0.329362
0.327231
0.316026
0.296158
0.268355
0.233637
0.193276
0.148752
0.101696
0.0538336
0.00691894
-0.0373283
-0.0772861
-0.11149
-0.138686
-0.157877
-0.16836
-0.169751
-0.161998
-0.145387
-0.120525
-0.0883235
-0.0499639
-0.00685164
0.0394328
0.087193
0.134678
0.180148
0.221935
0.258508
0.288527
0.310891
0.32478
0.281924
0.272802
0.254893
0.228853
0.195636
0.156461
0.112763
0.0661437
0.0183122
-0.0289783
-0.0739943
-0.115086
-0.150747
-0.179669
-0.200794
-0.213346
-0.216866
-0.211224
-0.196628
-0.173612
-0.143019
-0.105972
-0.0638287
-0.0181331
0.0294394
0.077145
0.123235
0.16602
0.203932
0.235581
0.259807
0.275722
0.282743
0.280611
0.269406
0.249539
0.221736
0.187018
0.146657
0.102133
0.0550768
0.00721435
-0.0397003
-0.0839475
-0.123905
-0.158109
-0.185305
-0.204496
-0.21498
-0.21637
-0.208618
-0.192006
-0.167144
-0.134943
-0.0965831
-0.0534709
-0.00718643
0.0405737
0.0880589
0.133528
0.175316
0.211889
0.241908
0.264272
0.278161
0.234092
0.224971
0.207061
0.181021
0.147805
0.10863
0.0649315
0.0183122
-0.0295193
-0.0768098
-0.121826
-0.162917
-0.198578
-0.227501
-0.248626
-0.261178
-0.264698
-0.259056
-0.244459
-0.221443
-0.190851
-0.153804
-0.11166
-0.0659647
-0.0183921
0.0293135
0.0754037
0.118189
0.156101
0.18775
0.211976
0.227891
0.234911
0.23278
0.221575
0.201707
0.173905
0.139187
0.0988257
0.0543012
0.00724533
-0.0406172
-0.0875318
-0.131779
-0.171737
-0.205941
-0.233137
-0.252328
-0.262811
-0.264202
-0.256449
-0.239837
-0.214975
-0.182774
-0.144415
-0.101302
-0.0550179
-0.00725779
0.0402274
0.085697
0.127484
0.164058
0.194076
0.21644
0.230329
0.186802
0.17768
0.159771
0.133731
0.100514
0.0613391
0.017641
-0.0289783
-0.0768098
-0.1241
-0.169116
-0.210208
-0.245869
-0.274791
-0.295916
-0.308468
-0.311988
-0.306346
-0.29175
-0.268734
-0.238141
-0.201094
-0.158951
-0.113255
-0.0656826
-0.017977
0.0281132
0.0708983
0.10881
0.140459
0.164685
0.1806
0.187621
0.185489
0.174284
0.154417
0.126614
0.0918961
0.0515352
0.00701073
-0.0400452
-0.0879077
-0.134822
-0.17907
-0.219027
-0.253231
-0.280427
-0.299618
-0.310102
-0.311492
-0.30374
-0.287128
-0.262266
-0.230065
-0.191705
-0.148593
-0.102308
-0.0545483
-0.00706313
0.0384065
0.0801938
0.116767
0.146786
0.16915
0.183039
0.141786
0.132664
0.114755
0.0887148
0.0554984
0.0163231
-0.027375
-0.0739943
-0.121826
-0.169116
-0.214132
-0.255224
-0.290885
-0.319807
-0.340932
-0.353484
-0.357004
-0.351362
-0.336766
-0.31375
-0.283157
-0.24611
-0.203967
-0.158271
-0.110699
-0.062993
-0.0169029
0.0258823
0.0637942
0.0954432
0.119669
0.135584
0.142605
0.140473
0.129268
0.109401
0.0815981
0.0468801
0.00651914
-0.0380053
-0.0850612
-0.132924
-0.179838
-0.224086
-0.264043
-0.298247
-0.325443
-0.344634
-0.355118
-0.356508
-0.348756
-0.332144
-0.307282
-0.275081
-0.236721
-0.193609
-0.147324
-0.0995643
-0.0520792
-0.00660956
0.0351778
0.0717511
0.10177
0.124134
0.138023
0.100694
0.0915725
0.0736634
0.0476233
0.0144069
-0.0247684
-0.0684665
-0.115086
-0.162917
-0.210208
-0.255224
-0.296315
-0.331976
-0.360899
-0.382024
-0.394576
-0.398096
-0.392454
-0.377857
-0.354841
-0.324249
-0.287202
-0.245058
-0.199363
-0.15179
-0.104085
-0.0579944
-0.0152092
0.0227027
0.0543517
0.0785777
0.0944926
0.101513
0.0993818
0.0881769
0.0683091
0.0405066
0.00578859
-0.0345723
-0.0790968
-0.126153
-0.174015
-0.22093
-0.265177
-0.305135
-0.339339
-0.366535
-0.385726
-0.396209
-0.3976
-0.389847
-0.373235
-0.348373
-0.316172
-0.277813
-0.2347
-0.188416
-0.140656
-0.0931706
-0.047701
-0.00591371
0.0306596
0.0606784
0.0830422
0.0969313
0.0650335
0.0559118
0.0380026
0.0119626
-0.0212538
-0.0604291
-0.104127
-0.150747
-0.198578
-0.245869
-0.290885
-0.331976
-0.367637
-0.39656
-0.417684
-0.430237
-0.433756
-0.428115
-0.413518
-0.390502
-0.35991
-0.322863
-0.280719
-0.235023
-0.187451
-0.139745
-0.0936551
-0.0508699
-0.012958
0.018691
0.0429169
0.0588318
0.0658523
0.063721
0.0525161
0.0326483
0.00484587
-0.0298721
-0.0702331
-0.114758
-0.161813
-0.209676
-0.256591
-0.300838
-0.340796
-0.374999
-0.402195
-0.421387
-0.43187
-0.433261
-0.425508
-0.408896
-0.384034
-0.351833
-0.313473
-0.270361
-0.224077
-0.176317
-0.128831
-0.0833618
-0.0415744
-0.0050011
0.0250176
0.0473814
0.0612705
0.0361107
0.0269889
0.00907983
-0.0169602
-0.0501766
-0.0893519
-0.13305
-0.179669
-0.227501
-0.274791
-0.319807
-0.360899
-0.39656
-0.425482
-0.446607
-0.459159
-0.462679
-0.457037
-0.442441
-0.419425
-0.388832
-0.351785
-0.309642
-0.263946
-0.216374
-0.168668
-0.122578
-0.0797927
-0.0418808
-0.0102318
0.0139941
0.029909
0.0369295
0.0347982
0.0235933
0.00372551
-0.0240769
-0.0587949
-0.0991559
-0.14368
-0.190736
-0.238599
-0.285513
-0.329761
-0.369718
-0.403922
-0.431118
-0.450309
-0.460793
-0.462183
-0.454431
-0.437819
-0.412957
-0.380756
-0.342396
-0.299284
-0.253
-0.205239
-0.157754
-0.112285
-0.0704973
-0.0339239
-0.00390517
0.0184586
0.0323477
0.014986
0.00586422
-0.0120449
-0.0380849
-0.0713014
-0.110477
-0.154175
-0.200794
-0.248626
-0.295916
-0.340932
-0.382024
-0.417684
-0.446607
-0.467732
-0.480284
-0.483804
-0.478162
-0.463566
-0.440549
-0.409957
-0.37291
-0.330767
-0.285071
-0.237498
-0.189793
-0.143703
-0.100917
-0.0630055
-0.0313565
-0.00713061
0.00878429
0.0158048
0.0136735
0.0024686
-0.0173992
-0.0452017
-0.0799197
-0.120281
-0.164805
-0.211861
-0.259723
-0.306638
-0.350885
-0.390843
-0.425047
-0.452243
-0.471434
-0.481917
-0.483308
-0.475556
-0.458944
-0.434082
-0.401881
-0.363521
-0.320409
-0.274124
-0.226364
-0.178879
-0.133409
-0.091622
-0.0550486
-0.0250299
-0.00266609
0.011223
0.00243365
-0.00668808
-0.0245972
-0.0506372
-0.0838537
-0.123029
-0.166727
-0.213346
-0.261178
-0.308468
-0.353484
-0.394576
-0.430237
-0.459159
-0.480284
-0.492836
-0.496356
-0.490714
-0.476118
-0.453102
-0.422509
-0.385462
-0.343319
-0.297623
-0.250051
-0.202345
-0.156255
-0.11347
-0.0755578
-0.0439088
-0.0196829
-0.00376801
0.00325247
0.0011212
-0.0100837
-0.0299515
-0.057754
-0.092472
-0.132833
-0.177357
-0.224413
-0.272276
-0.31919
-0.363438
-0.403395
-0.437599
-0.464795
-0.483986
-0.49447
-0.49586
-0.488108
-0.471496
-0.446634
-0.414433
-0.376073
-0.332961
-0.286677
-0.238916
-0.191431
-0.145962
-0.104174
-0.0676009
-0.0375822
-0.0152184
-0.00132929
-0.00108612
-0.0102079
-0.028117
-0.054157
-0.0873734
-0.126549
-0.170247
-0.216866
-0.264698
-0.311988
-0.357004
-0.398096
-0.433756
-0.462679
-0.483804
-0.496356
-0.499876
-0.494234
-0.479638
-0.456621
-0.426029
-0.388982
-0.346839
-0.301143
-0.253571
-0.205865
-0.159775
-0.11699
-0.0790776
-0.0474286
-0.0232027
-0.00728778
-0.000267304
-0.00239857
-0.0136035
-0.0334713
-0.0612737
-0.0959917
-0.136353
-0.180877
-0.227933
-0.275796
-0.32271
-0.366957
-0.406915
-0.441119
-0.468315
-0.487506
-0.497989
-0.49938
-0.491628
-0.475016
-0.450154
-0.417953
-0.379593
-0.336481
-0.290196
-0.242436
-0.194951
-0.149481
-0.107694
-0.0711207
-0.041102
-0.0187382
-0.00484906
0.00455566
-0.00456607
-0.0224752
-0.0485152
-0.0817317
-0.120907
-0.164605
-0.211224
-0.259056
-0.306346
-0.351362
-0.392454
-0.428115
-0.457037
-0.478162
-0.490714
-0.494234
-0.488592
-0.473996
-0.45098
-0.420387
-0.38334
-0.341197
-0.295501
-0.247929
-0.200223
-0.154133
-0.111348
-0.0734358
-0.0417868
-0.0175609
-0.00164601
0.00537447
0.0032432
-0.00796169
-0.0278295
-0.055632
-0.09035
-0.130711
-0.175235
-0.222291
-0.270154
-0.317068
-0.361316
-0.401273
-0.435477
-0.462673
-0.481864
-0.492348
-0.493738
-0.485986
-0.469374
-0.444512
-0.412311
-0.373951
-0.330839
-0.284555
-0.236794
-0.189309
-0.14384
-0.102052
-0.0654789
-0.0354602
-0.0130964
0.000792718
0.0191522
0.0100305
-0.00787866
-0.0339187
-0.0671351
-0.10631
-0.150009
-0.196628
-0.244459
-0.29175
-0.336766
-0.377857
-0.413518
-0.442441
-0.463566
-0.476118
-0.479638
-0.473996
-0.459399
-0.436383
-0.405791
-0.368744
-0.3266
-0.280905
-0.233332
-0.185627
-0.139536
-0.0967512
-0.0588393
-0.0271903
-0.00296437
0.0129505
0.019971
0.0178397
0.00663483
-0.013233
-0.0410354
-0.0757534
-0.116114
-0.160639
-0.207695
-0.255557
-0.302472
-0.346719
-0.386677
-0.420881
-0.448077
-0.467268
-0.477751
-0.479142
-0.471389
-0.454778
-0.429915
-0.397714
-0.359355
-0.316242
-0.269958
-0.222198
-0.174713
-0.129243
-0.0874557
-0.0508824
-0.0208637
0.00150014
0.0153892
0.0421684
0.0330467
0.0151376
-0.0109025
-0.0441189
-0.0832942
-0.126992
-0.173612
-0.221443
-0.268734
-0.31375
-0.354841
-0.390502
-0.419425
-0.440549
-0.453102
-0.456621
-0.45098
-0.436383
-0.413367
-0.382775
-0.345728
-0.303584
-0.257888
-0.210316
-0.16261
-0.11652
-0.073735
-0.0358231
-0.00417408
0.0200519
0.0359668
0.0429872
0.040856
0.0296511
0.00978326
-0.0180192
-0.0527372
-0.0930981
-0.137623
-0.184678
-0.232541
-0.279456
-0.323703
-0.363661
-0.397864
-0.42506
-0.444252
-0.454735
-0.456126
-0.448373
-0.431761
-0.406899
-0.374698
-0.336338
-0.293226
-0.246942
-0.199182
-0.151696
-0.106227
-0.0644395
-0.0278662
0.00215258
0.0245164
0.0384055
0.0727607
0.063639
0.0457298
0.0196898
-0.0135266
-0.0527019
-0.0964001
-0.143019
-0.190851
-0.238141
-0.283157
-0.324249
-0.35991
-0.388832
-0.409957
-0.422509
-0.426029
-0.420387
-0.405791
-0.382775
-0.352182
-0.315135
-0.272992
-0.227296
-0.179724
-0.132018
-0.0859279
-0.0431427
-0.00523078
0.0264182
0.0506441
0.066559
0.0735795
0.0714482
0.0602433
0.0403755
0.0125731
-0.0221449
-0.0625059
-0.10703
-0.154086
-0.201949
-0.248863
-0.293111
-0.333068
-0.367272
-0.394468
-0.413659
-0.424143
-0.425533
-0.417781
-0.401169
-0.376307
-0.344106
-0.305746
-0.262634
-0.216349
-0.168589
-0.121104
-0.0756346
-0.0338472
0.00272611
0.0327449
0.0551087
0.0689978
0.109808
0.100686
0.0827768
0.0567368
0.0235203
-0.015655
-0.0593531
-0.105972
-0.153804
-0.201094
-0.24611
-0.287202
-0.322863
-0.351785
-0.37291
-0.385462
-0.388982
-0.38334
-0.368744
-0.345728
-0.315135
-0.278088
-0.235945
-0.190249
-0.142677
-0.0949711
-0.0488809
-0.00609575
0.0318162
0.0634651
0.0876911
0.103606
0.110626
0.108495
0.0972903
0.0774225
0.04962
0.014902
-0.0254589
-0.0699834
-0.117039
-0.164902
-0.211816
-0.256064
-0.296021
-0.330225
-0.357421
-0.376612
-0.387096
-0.388486
-0.380734
-0.364122
-0.33926
-0.307059
-0.268699
-0.225587
-0.179303
-0.131542
-0.0840572
-0.0385876
0.00319972
0.0397731
0.0697918
0.0921556
0.106045
0.151951
0.14283
0.12492
0.0988804
0.065664
0.0264887
-0.0172095
-0.0638287
-0.11166
-0.158951
-0.203967
-0.245058
-0.280719
-0.309642
-0.330767
-0.343319
-0.346839
-0.341197
-0.3266
-0.303584
-0.272992
-0.235945
-0.193801
-0.148106
-0.100533
-0.0528274
-0.00673728
0.0360479
0.0739598
0.105609
0.129835
0.14575
0.15277
0.150639
0.139434
0.119566
0.0917637
0.0570457
0.0166847
-0.0278397
-0.0748956
-0.122758
-0.169673
-0.21392
-0.253878
-0.288082
-0.315278
-0.334469
-0.344952
-0.346343
-0.33859
-0.321978
-0.297116
-0.264915
-0.226556
-0.183443
-0.137159
-0.0893987
-0.0419136
0.00355604
0.0453434
0.0819167
0.111935
0.134299
0.148188
0.197647
0.188525
0.170616
0.144576
0.11136
0.0721843
0.0284861
-0.0181331
-0.0659647
-0.113255
-0.158271
-0.199363
-0.235023
-0.263946
-0.285071
-0.297623
-0.301143
-0.295501
-0.280905
-0.257888
-0.227296
-0.190249
-0.148106
-0.10241
-0.0548375
-0.00713185
0.0389583
0.0817435
0.119655
0.151304
0.17553
0.191445
0.198466
0.196334
0.18513
0.165262
0.137459
0.102741
0.0623803
0.0178559
-0.0292
-0.0770625
-0.123977
-0.168224
-0.208182
-0.242386
-0.269582
-0.288773
-0.299256
-0.300647
-0.292895
-0.276283
-0.251421
-0.21922
-0.18086
-0.137748
-0.0914633
-0.0437032
0.00378201
0.0492516
0.0910389
0.127612
0.157631
0.179995
0.193884
0.245219
0.236098
0.218189
0.192149
0.158932
0.119757
0.0760586
0.0294394
-0.0183921
-0.0656826
-0.110699
-0.15179
-0.187451
-0.216374
-0.237498
-0.250051
-0.253571
-0.247929
-0.233332
-0.210316
-0.179724
-0.142677
-0.100533
-0.0548375
-0.007265
0.0404407
0.0865308
0.129316
0.167228
0.198877
0.223103
0.239018
0.246038
0.243907
0.232702
0.212834
0.185032
0.150314
0.109953
0.0654284
0.0183725
-0.02949
-0.0764047
-0.120652
-0.16061
-0.194813
-0.222009
-0.241201
-0.251684
-0.253075
-0.245322
-0.22871
-0.203848
-0.171647
-0.133287
-0.0901753
-0.0438908
0.00386935
0.0513545
0.0968241
0.138611
0.175185
0.205204
0.227567
0.241456
0.292925
0.283803
0.265894
0.239854
0.206638
0.167462
0.123764
0.077145
0.0293135
-0.017977
-0.062993
-0.104085
-0.139745
-0.168668
-0.189793
-0.202345
-0.205865
-0.200223
-0.185627
-0.16261
-0.132018
-0.0949711
-0.0528274
-0.00713185
0.0404407
0.0881463
0.134236
0.177022
0.214934
0.246583
0.270808
0.286723
0.293744
0.291613
0.280408
0.26054
0.232737
0.198019
0.157658
0.113134
0.0660781
0.0182156
-0.028699
-0.0729462
-0.112904
-0.147108
-0.174304
-0.193495
-0.203978
-0.205369
-0.197616
-0.181005
-0.156143
-0.123942
-0.0855818
-0.0424696
0.00381486
0.051575
0.0990602
0.14453
0.186317
0.22289
0.252909
0.275273
0.289162
0.339015
0.329893
0.311984
0.285944
0.252728
0.213553
0.169854
0.123235
0.0754037
0.0281132
-0.0169029
-0.0579944
-0.0936551
-0.122578
-0.143703
-0.156255
-0.159775
-0.154133
-0.139536
-0.11652
-0.0859279
-0.0488809
-0.00673728
0.0389583
0.0865308
0.134236
0.180327
0.223112
0.261024
0.292673
0.316899
0.332814
0.339834
0.337703
0.326498
0.30663
0.278828
0.24411
0.203749
0.159224
0.112168
0.0643058
0.0173911
-0.0268561
-0.0668139
-0.101018
-0.128214
-0.147405
-0.157888
-0.159279
-0.151526
-0.134915
-0.110052
-0.0778514
-0.0394917
0.00362054
0.049905
0.0976652
0.14515
0.19062
0.232407
0.268981
0.298999
0.321363
0.335252
0.3818
0.372679
0.35477
0.328729
0.295513
0.256338
0.21264
0.16602
0.118189
0.0708983
0.0258823
-0.0152092
-0.0508699
-0.0797927
-0.100917
-0.11347
-0.11699
-0.111348
-0.0967512
-0.073735
-0.0431427
-0.00609575
0.0360479
0.0817435
0.129316
0.177022
0.223112
0.265897
0.303809
0.335458
0.359684
0.375599
0.382619
0.380488
0.369283
0.349415
0.321613
0.286895
0.246534
0.202009
0.154953
0.107091
0.0601763
0.0159291
-0.0240287
-0.0582325
-0.0854285
-0.10462
-0.115103
-0.116494
-0.108741
-0.0921293
-0.0672672
-0.0350662
0.0032935
0.0464057
0.0926902
0.14045
0.187936
0.233405
0.275192
0.311766
0.341785
0.364148
0.378037
0.419712
0.410591
0.392681
0.366641
0.333425
0.29425
0.250552
0.203932
0.156101
0.10881
0.0637942
0.0227027
-0.012958
-0.0418808
-0.0630055
-0.0755578
-0.0790776
-0.0734358
-0.0588393
-0.0358231
-0.00523078
0.0318162
0.0739598
0.119655
0.167228
0.214934
0.261024
0.303809
0.341721
0.37337
0.397596
0.413511
0.420531
0.4184
0.407195
0.387327
0.359525
0.324807
0.284446
0.239921
0.192865
0.145003
0.0980882
0.053841
0.0138832
-0.0203206
-0.0475165
-0.0667078
-0.077191
-0.0785818
-0.0708292
-0.0542174
-0.0293553
0.00284574
0.0412054
0.0843176
0.130602
0.178362
0.225847
0.271317
0.313104
0.349678
0.379696
0.40206
0.415949
0.451361
0.44224
0.42433
0.39829
0.365074
0.325899
0.282201
0.235581
0.18775
0.140459
0.0954432
0.0543517
0.018691
-0.0102318
-0.0313565
-0.0439088
-0.0474286
-0.0417868
-0.0271903
-0.00417408
0.0264182
0.0634651
0.105609
0.151304
0.198877
0.246583
0.292673
0.335458
0.37337
0.405019
0.429245
0.44516
0.45218
0.450049
0.438844
0.418976
0.391174
0.356456
0.316095
0.27157
0.224514
0.176652
0.129737
0.08549
0.0455322
0.0113284
-0.0158676
-0.0350589
-0.045542
-0.0469328
-0.0391802
-0.0225684
0.00229367
0.0344947
0.0728544
0.115967
0.162251
0.210011
0.257496
0.302966
0.344753
0.381327
0.411345
0.433709
0.447598
0.475587
0.466465
0.448556
0.422516
0.3893
0.350125
0.306426
0.259807
0.211976
0.164685
0.119669
0.0785777
0.0429169
0.0139941
-0.00713061
-0.0196829
-0.0232027
-0.0175609
-0.00296437
0.0200519
0.0506441
0.0876911
0.129835
0.17553
0.223103
0.270808
0.316899
0.359684
0.397596
0.429245
0.453471
0.469386
0.476406
0.474275
0.46307
0.443202
0.4154
0.380682
0.340321
0.295796
0.24874
0.200878
0.153963
0.109716
0.0697581
0.0355544
0.00835838
-0.0108329
-0.0213161
-0.0227069
-0.0149543
0.00165752
0.0265196
0.0587207
0.0970803
0.140193
0.186477
0.234237
0.281722
0.327192
0.368979
0.405553
0.435571
0.457935
0.471824
0.491502
0.48238
0.464471
0.438431
0.405215
0.36604
0.322341
0.275722
0.227891
0.1806
0.135584
0.0944926
0.0588318
0.029909
0.00878429
-0.00376801
-0.00728778
-0.00164601
0.0129505
0.0359668
0.066559
0.103606
0.14575
0.191445
0.239018
0.286723
0.332814
0.375599
0.413511
0.44516
0.469386
0.4853
0.492321
0.49019
0.478985
0.459117
0.431314
0.396596
0.356236
0.311711
0.264655
0.216793
0.169878
0.125631
0.085673
0.0514693
0.0242733
0.00508197
-0.0054012
-0.00679198
0.000960614
0.0175724
0.0424345
0.0746356
0.112995
0.156107
0.202392
0.250152
0.297637
0.343107
0.384894
0.421468
0.451486
0.47385
0.487739
0.498523
0.489401
0.471492
0.445452
0.412235
0.37306
0.329362
0.282743
0.234911
0.187621
0.142605
0.101513
0.0658523
0.0369295
0.0158048
0.00325247
-0.000267304
0.00537447
0.019971
0.0429872
0.0735795
0.110626
0.15277
0.198466
0.246038
0.293744
0.339834
0.382619
0.420531
0.45218
0.476406
0.492321
0.499341
0.49721
0.486005
0.466137
0.438335
0.403617
0.363256
0.318732
0.271676
0.223813
0.176899
0.132651
0.0926935
0.0584897
0.0312938
0.0121025
0.00161928
0.000228498
0.00798109
0.0245929
0.049455
0.081656
0.120016
0.163128
0.209412
0.257173
0.304658
0.350127
0.391915
0.428488
0.458507
0.480871
0.49476
0.496391
0.48727
0.46936
0.44332
0.410104
0.370929
0.327231
0.280611
0.23278
0.185489
0.140473
0.0993818
0.063721
0.0347982
0.0136735
0.0011212
-0.00239857
0.0032432
0.0178397
0.040856
0.0714482
0.108495
0.150639
0.196334
0.243907
0.291613
0.337703
0.380488
0.4184
0.450049
0.474275
0.49019
0.49721
0.495079
0.483874
0.464006
0.436204
0.401486
0.361125
0.3166
0.269544
0.221682
0.174767
0.13052
0.0905622
0.0563585
0.0291625
0.00997118
-0.000511994
-0.00190277
0.00584982
0.0224616
0.0473237
0.0795248
0.117884
0.160997
0.207281
0.255041
0.302526
0.347996
0.389783
0.426357
0.456375
0.478739
0.492628
0.485186
0.476065
0.458156
0.432116
0.398899
0.359724
0.316026
0.269406
0.221575
0.174284
0.129268
0.0881769
0.0525161
0.0235933
0.0024686
-0.0100837
-0.0136035
-0.00796169
0.00663483
0.0296511
0.0602433
0.0972903
0.139434
0.18513
0.232702
0.280408
0.326498
0.369283
0.407195
0.438844
0.46307
0.478985
0.486005
0.483874
0.472669
0.452801
0.424999
0.390281
0.34992
0.305395
0.25834
0.210477
0.163562
0.119315
0.0793573
0.0451536
0.0179576
-0.00123372
-0.0117169
-0.0131077
-0.00535508
0.0112567
0.0361188
0.0683199
0.10668
0.149792
0.196076
0.243836
0.291322
0.336791
0.378578
0.415152
0.445171
0.467534
0.481423
0.465319
0.456197
0.438288
0.412248
0.379031
0.339856
0.296158
0.249539
0.201707
0.154417
0.109401
0.0683091
0.0326483
0.00372551
-0.0173992
-0.0299515
-0.0334713
-0.0278295
-0.013233
0.00978326
0.0403755
0.0774225
0.119566
0.165262
0.212834
0.26054
0.30663
0.349415
0.387327
0.418976
0.443202
0.459117
0.466137
0.464006
0.452801
0.432933
0.405131
0.370413
0.330052
0.285528
0.238472
0.190609
0.143695
0.0994473
0.0594895
0.0252858
-0.00191022
-0.0211015
-0.0315847
-0.0329755
-0.0252229
-0.00861109
0.016251
0.0484521
0.0868117
0.129924
0.176208
0.223969
0.271454
0.316923
0.358711
0.395284
0.425303
0.447667
0.461556
0.437516
0.428394
0.410485
0.384445
0.351229
0.312054
0.268355
0.221736
0.173905
0.126614
0.0815981
0.0405066
0.00484587
-0.0240769
-0.0452017
-0.057754
-0.0612737
-0.055632
-0.0410354
-0.0180192
0.0125731
0.04962
0.0917637
0.137459
0.185032
0.232737
0.278828
0.321613
0.359525
0.391174
0.4154
0.431314
0.438335
0.436204
0.424999
0.405131
0.377329
0.342611
0.30225
0.257725
0.210669
0.162807
0.115892
0.0716449
0.0316871
-0.0025167
-0.0297127
-0.048904
-0.0593872
-0.0607779
-0.0530253
-0.0364135
-0.0115515
0.0206496
0.0590093
0.102121
0.148406
0.196166
0.243651
0.289121
0.330908
0.367482
0.3975
0.419864
0.433753
0.402798
0.393676
0.375767
0.349727
0.316511
0.277336
0.233637
0.187018
0.139187
0.0918961
0.0468801
0.00578859
-0.0298721
-0.0587949
-0.0799197
-0.092472
-0.0959917
-0.09035
-0.0757534
-0.0527372
-0.0221449
0.014902
0.0570457
0.102741
0.150314
0.198019
0.24411
0.286895
0.324807
0.356456
0.380682
0.396596
0.403617
0.401486
0.390281
0.370413
0.342611
0.307893
0.267532
0.223007
0.175951
0.128089
0.0811741
0.0369269
-0.00303093
-0.0372347
-0.0644307
-0.083622
-0.0941052
-0.0954959
-0.0877433
-0.0711315
-0.0462695
-0.0140684
0.0242913
0.0674035
0.113688
0.161448
0.208933
0.254403
0.29619
0.332764
0.362782
0.385146
0.399035
0.362437
0.353315
0.335406
0.309366
0.27615
0.236975
0.193276
0.146657
0.0988257
0.0515352
0.00651914
-0.0345723
-0.0702331
-0.0991559
-0.120281
-0.132833
-0.136353
-0.130711
-0.116114
-0.0930981
-0.0625059
-0.0254589
0.0166847
0.0623803
0.109953
0.157658
0.203749
0.246534
0.284446
0.316095
0.340321
0.356236
0.363256
0.361125
0.34992
0.330052
0.30225
0.267532
0.227171
0.182646
0.13559
0.0877278
0.0408131
-0.00343407
-0.0433919
-0.0775956
-0.104792
-0.123983
-0.134466
-0.135857
-0.128104
-0.111492
-0.0866304
-0.0544293
-0.0160697
0.0270426
0.073327
0.121087
0.168572
0.214042
0.255829
0.292403
0.322421
0.344785
0.358674
0.317913
0.308791
0.290882
0.264842
0.231625
0.19245
0.148752
0.102133
0.0543012
0.00701073
-0.0380053
-0.0790968
-0.114758
-0.14368
-0.164805
-0.177357
-0.180877
-0.175235
-0.160639
-0.137623
-0.10703
-0.0699834
-0.0278397
0.0178559
0.0654284
0.113134
0.159224
0.202009
0.239921
0.27157
0.295796
0.311711
0.318732
0.3166
0.305395
0.285528
0.257725
0.223007
0.182646
0.138122
0.0910658
0.0432034
-0.00371132
-0.0479585
-0.0879163
-0.12212
-0.149316
-0.168507
-0.178991
-0.180381
-0.172629
-0.156017
-0.131155
-0.0989538
-0.0605941
-0.0174819
0.0288026
0.0765627
0.124048
0.169517
0.211305
0.247878
0.277897
0.300261
0.31415
0.270857
0.261735
0.243826
0.217786
0.18457
0.145394
0.101696
0.0550768
0.00724533
-0.0400452
-0.0850612
-0.126153
-0.161813
-0.190736
-0.211861
-0.224413
-0.227933
-0.222291
-0.207695
-0.184678
-0.154086
-0.117039
-0.0748956
-0.0292
0.0183725
0.0660781
0.112168
0.154953
0.192865
0.224514
0.24874
0.264655
0.271676
0.269544
0.25834
0.238472
0.210669
0.175951
0.13559
0.0910658
0.04401
-0.00385254
-0.0507672
-0.0950144
-0.134972
-0.169176
-0.196372
-0.215563
-0.226046
-0.227437
-0.219685
-0.203073
-0.178211
-0.14601
-0.10765
-0.0645378
-0.0182533
0.0295068
0.076992
0.122462
0.164249
0.200822
0.230841
0.253205
0.267094
0.222994
0.213873
0.195964
0.169923
0.136707
0.0975318
0.0538336
0.00721435
-0.0406172
-0.0879077
-0.132924
-0.174015
-0.209676
-0.238599
-0.259723
-0.272276
-0.275796
-0.270154
-0.255557
-0.232541
-0.201949
-0.164902
-0.122758
-0.0770625
-0.02949
0.0182156
0.0643058
0.107091
0.145003
0.176652
0.200878
0.216793
0.223813
0.221682
0.210477
0.190609
0.162807
0.128089
0.0877278
0.0432034
-0.00385254
-0.051715
-0.0986297
-0.142877
-0.182835
-0.217038
-0.244234
-0.263426
-0.273909
-0.2753
-0.267547
-0.250935
-0.226073
-0.193872
-0.155512
-0.1124
-0.0661158
-0.0183557
0.0291295
0.0745991
0.116386
0.15296
0.182979
0.205342
0.219231
0.17608
0.166958
0.149049
0.123009
0.0897924
0.0506171
0.00691894
-0.0397003
-0.0875318
-0.134822
-0.179838
-0.22093
-0.256591
-0.285513
-0.306638
-0.31919
-0.32271
-0.317068
-0.302472
-0.279456
-0.248863
-0.211816
-0.169673
-0.123977
-0.0764047
-0.028699
0.0173911
0.0601763
0.0980882
0.129737
0.153963
0.169878
0.176899
0.174767
0.163562
0.143695
0.115892
0.0811741
0.0408131
-0.00371132
-0.0507672
-0.0986297
-0.145544
-0.189792
-0.229749
-0.263953
-0.291149
-0.31034
-0.320824
-0.322214
-0.314462
-0.29785
-0.272988
-0.240787
-0.202427
-0.159315
-0.11303
-0.0652703
-0.0177852
0.0276844
0.0694718
0.106045
0.136064
0.158428
0.172317
0.131833
0.122711
0.104802
0.0787616
0.0455452
0.0063699
-0.0373283
-0.0839475
-0.131779
-0.17907
-0.224086
-0.265177
-0.300838
-0.329761
-0.350885
-0.363438
-0.366957
-0.361316
-0.346719
-0.323703
-0.293111
-0.256064
-0.21392
-0.168224
-0.120652
-0.0729462
-0.0268561
0.0159291
0.053841
0.08549
0.109716
0.125631
0.132651
0.13052
0.119315
0.0994473
0.0716449
0.0369269
-0.00343407
-0.0479585
-0.0950144
-0.142877
-0.189792
-0.234039
-0.273997
-0.3082
-0.335396
-0.354588
-0.365071
-0.366462
-0.358709
-0.342097
-0.317235
-0.285034
-0.246674
-0.203562
-0.157278
-0.109518
-0.0620324
-0.0165628
0.0252246
0.0617979
0.0918167
0.11418
0.12807
0.0918747
0.082753
0.0648438
0.0388038
0.00558738
-0.0335879
-0.0772861
-0.123905
-0.171737
-0.219027
-0.264043
-0.305135
-0.340796
-0.369718
-0.390843
-0.403395
-0.406915
-0.401273
-0.386677
-0.363661
-0.333068
-0.296021
-0.253878
-0.208182
-0.16061
-0.112904
-0.0668139
-0.0240287
0.0138832
0.0455322
0.0697581
0.085673
0.0926935
0.0905622
0.0793573
0.0594895
0.0316871
-0.00303093
-0.0433919
-0.0879163
-0.134972
-0.182835
-0.229749
-0.273997
-0.313954
-0.348158
-0.375354
-0.394545
-0.405029
-0.406419
-0.398667
-0.382055
-0.357193
-0.324992
-0.286632
-0.24352
-0.197235
-0.149475
-0.10199
-0.0565206
-0.0147332
0.0218401
0.0518588
0.0742226
0.0881117
0.0576709
0.0485492
0.0306401
0.00460004
-0.0286164
-0.0677917
-0.11149
-0.158109
-0.205941
-0.253231
-0.298247
-0.339339
-0.374999
-0.403922
-0.425047
-0.437599
-0.441119
-0.435477
-0.420881
-0.397864
-0.367272
-0.330225
-0.288082
-0.242386
-0.194813
-0.147108
-0.101018
-0.0582325
-0.0203206
0.0113284
0.0355544
0.0514693
0.0584897
0.0563585
0.0451536
0.0252858
-0.0025167
-0.0372347
-0.0775956
-0.12212
-0.169176
-0.217038
-0.263953
-0.3082
-0.348158
-0.382362
-0.409558
-0.428749
-0.439232
-0.440623
-0.432871
-0.416259
-0.391397
-0.359196
-0.320836
-0.277724
-0.231439
-0.183679
-0.136194
-0.0907243
-0.048937
-0.0123637
0.0176551
0.0400189
0.053908
0.0304749
0.0213532
0.00344409
-0.0225959