/*--------------------------------*- C++ -*----------------------------------*\
| =========                 |                                                 |
| \\      /  F ield         | OpenFOAM: The Open Source CFD Toolbox           |
|  \\    /   O peration     | Version:  2012                                  |
|   \\  /    A nd           | Website:  www.openfoam.com                      |
|    \\/     M anipulation  |                                                 |
\*---------------------------------------------------------------------------*/
FoamFile
{
    version     2.0;
    format      ascii;
    class       volVectorField;
    location    "0";
    object      U;
}
// * * * * * * * * * * * * * * * * * * * * * * * * * * * * * * * * * * * * * //

dimensions      [0 1 -1 0 0 0 0];


internalField   nonuniform List<vector> 
4225
(
(0.0478639 -0.0478639 0)
(0.143152 -0.0474243 0)
(0.237126 -0.0465491 0)
(0.328921 -0.0452463 0)
(0.417695 -0.043528 0)
(0.502633 -0.0414098 0)
(0.582954 -0.0389113 0)
(0.657921 -0.0360554 0)
(0.726845 -0.0328684 0)
(0.789093 -0.0293794 0)
(0.844093 -0.0256206 0)
(0.89134 -0.0216265 0)
(0.9304 -0.0174338 0)
(0.960915 -0.0130809 0)
(0.982604 -0.00860785 0)
(0.995267 -0.00405575 0)
(0.998789 0.000533596 0)
(0.993138 0.00511804 0)
(0.978364 0.00965548 0)
(0.954604 0.0141042 0)
(0.922077 0.0184234 0)
(0.88108 0.0225734 0)
(0.83199 0.0265161 0)
(0.775259 0.0302152 0)
(0.711407 0.0336368 0)
(0.641021 0.0367494 0)
(0.564747 0.0395245 0)
(0.483286 0.0419365 0)
(0.397386 0.0439634 0)
(0.307836 0.0455865 0)
(0.215459 0.0467909 0)
(0.121102 0.0475655 0)
(0.0256338 0.0479032 0)
(-0.0700703 0.0478009 0)
(-0.165131 0.0472596 0)
(-0.258675 0.0462842 0)
(-0.349843 0.0448837 0)
(-0.437797 0.0430709 0)
(-0.521731 0.0408626 0)
(-0.600872 0.0382789 0)
(-0.674495 0.0353436 0)
(-0.741922 0.0320837 0)
(-0.802535 0.0285291 0)
(-0.855776 0.0247125 0)
(-0.901158 0.0206689 0)
(-0.938262 0.0164354 0)
(-0.966749 0.012051 0)
(-0.986356 0.00755594 0)
(-0.996903 0.00299145 0)
(-0.998294 -0.00160052 0)
(-0.990516 -0.00617779 0)
(-0.973639 -0.0106983 0)
(-0.947821 -0.0151206 0)
(-0.913296 -0.019404 0)
(-0.870383 -0.0235091 0)
(-0.819475 -0.0273984 0)
(-0.761041 -0.0310359 0)
(-0.695617 -0.0343885 0)
(-0.623803 -0.0374251 0)
(-0.54626 -0.040118 0)
(-0.463699 -0.0424425 0)
(-0.37688 -0.0443771 0)
(-0.286599 -0.0459041 0)
(-0.193685 -0.0470095 0)
(-0.0989928 -0.0476831 0)
(0.0474243 -0.143152 0)
(0.141837 -0.141837 0)
(0.234948 -0.13922 0)
(0.3259 -0.135323 0)
(0.413859 -0.130184 0)
(0.498016 -0.123849 0)
(0.5776 -0.116377 0)
(0.651878 -0.107835 0)
(0.720169 -0.0983033 0)
(0.781845 -0.0878685 0)
(0.83634 -0.0766266 0)
(0.883153 -0.0646809 0)
(0.921855 -0.0521412 0)
(0.952089 -0.0391225 0)
(0.973578 -0.0257445 0)
(0.986126 -0.01213 0)
(0.989616 0.00159589 0)
(0.984016 0.0153071 0)
(0.969378 0.0288777 0)
(0.945836 0.0421831 0)
(0.913608 0.0551011 0)
(0.872987 0.0675129 0)
(0.824349 0.0793047 0)
(0.768138 0.090368 0)
(0.704873 0.100601 0)
(0.635133 0.109911 0)
(0.55956 0.11821 0)
(0.478847 0.125424 0)
(0.393736 0.131486 0)
(0.305009 0.136341 0)
(0.21348 0.139943 0)
(0.11999 0.14226 0)
(0.0253984 0.14327 0)
(-0.0694267 0.142964 0)
(-0.163614 0.141345 0)
(-0.256299 0.138428 0)
(-0.346629 0.134239 0)
(-0.433776 0.128817 0)
(-0.516939 0.122212 0)
(-0.595353 0.114485 0)
(-0.668299 0.105706 0)
(-0.735107 0.0959564 0)
(-0.795164 0.0853253 0)
(-0.847916 0.0739105 0)
(-0.892881 0.0618168 0)
(-0.929644 0.0491554 0)
(-0.957869 0.0360424 0)
(-0.977296 0.0225984 0)
(-0.987747 0.00894687 0)
(-0.989125 -0.00478687 0)
(-0.981418 -0.0184766 0)
(-0.964697 -0.0319967 0)
(-0.939115 -0.0452229 0)
(-0.904907 -0.0580337 0)
(-0.862389 -0.0703115 0)
(-0.811949 -0.0819434 0)
(-0.754051 -0.0928228 0)
(-0.689228 -0.10285 0)
(-0.618074 -0.111932 0)
(-0.541243 -0.119986 0)
(-0.45944 -0.126938 0)
(-0.373418 -0.132724 0)
(-0.283966 -0.137291 0)
(-0.191906 -0.140597 0)
(-0.0980835 -0.142611 0)
(0.0465491 -0.237126 0)
(0.13922 -0.234948 0)
(0.230612 -0.230612 0)
(0.319885 -0.224158 0)
(0.406221 -0.215645 0)
(0.488826 -0.205151 0)
(0.56694 -0.192773 0)
(0.639848 -0.178624 0)
(0.706878 -0.162835 0)
(0.767416 -0.14555 0)
(0.820905 -0.126929 0)
(0.866854 -0.107141 0)
(0.904842 -0.0863697 0)
(0.934518 -0.0648048 0)
(0.955611 -0.0426446 0)
(0.967927 -0.0200928 0)
(0.971352 0.00264352 0)
(0.965856 0.0253556 0)
(0.951488 0.0478348 0)
(0.928381 0.0698746 0)
(0.896747 0.0912726 0)
(0.856876 0.111832 0)
(0.809135 0.131365 0)
(0.753962 0.149691 0)
(0.691865 0.166642 0)
(0.623412 0.182062 0)
(0.549233 0.195811 0)
(0.47001 0.20776 0)
(0.38647 0.217802 0)
(0.29938 0.225843 0)
(0.20954 0.231809 0)
(0.117776 0.235647 0)
(0.0249296 0.23732 0)
(-0.0681454 0.236813 0)
(-0.160595 0.234132 0)
(-0.251569 0.229299 0)
(-0.340232 0.222361 0)
(-0.425771 0.21338 0)
(-0.507399 0.20244 0)
(-0.584366 0.18964 0)
(-0.655966 0.175098 0)
(-0.721541 0.158948 0)
(-0.780489 0.141338 0)
(-0.832268 0.12243 0)
(-0.876403 0.102397 0)
(-0.912488 0.0814238 0)
(-0.940192 0.0597028 0)
(-0.95926 0.0374334 0)
(-0.969518 0.0148201 0)
(-0.97087 -0.00792925 0)
(-0.963306 -0.0306058 0)
(-0.946893 -0.0530012 0)
(-0.921784 -0.0749098 0)
(-0.888207 -0.0961304 0)
(-0.846473 -0.116468 0)
(-0.796964 -0.135736 0)
(-0.740135 -0.153757 0)
(-0.676508 -0.170366 0)
(-0.606667 -0.18541 0)
(-0.531254 -0.198751 0)
(-0.450962 -0.210267 0)
(-0.366527 -0.219851 0)
(-0.278726 -0.227416 0)
(-0.188365 -0.232892 0)
(-0.0962734 -0.236229 0)
(0.0452463 -0.328921 0)
(0.135323 -0.3259 0)
(0.224158 -0.319885 0)
(0.310933 -0.310933 0)
(0.394852 -0.299124 0)
(0.475145 -0.284568 0)
(0.551073 -0.267399 0)
(0.62194 -0.247773 0)
(0.687095 -0.225872 0)
(0.745938 -0.201896 0)
(0.797931 -0.176065 0)
(0.842594 -0.148617 0)
(0.879518 -0.119805 0)
(0.908364 -0.0898918 0)
(0.928866 -0.0591531 0)
(0.940838 -0.0278711 0)
(0.944167 0.00366687 0)
(0.938825 0.0351712 0)
(0.924859 0.0663525 0)
(0.902399 0.0969243 0)
(0.87165 0.126606 0)
(0.832895 0.155125 0)
(0.78649 0.182219 0)
(0.732861 0.207639 0)
(0.672501 0.231152 0)
(0.605965 0.252542 0)
(0.533862 0.271612 0)
(0.456856 0.288188 0)
(0.375654 0.302117 0)
(0.291001 0.313271 0)
(0.203676 0.321547 0)
(0.11448 0.32687 0)
(0.0242319 0.329191 0)
(-0.0662383 0.328488 0)
(-0.1561 0.324768 0)
(-0.244528 0.318065 0)
(-0.33071 0.308441 0)
(-0.413855 0.295984 0)
(-0.493198 0.280808 0)
(-0.568011 0.263053 0)
(-0.637608 0.242881 0)
(-0.701347 0.220479 0)
(-0.758645 0.196052 0)
(-0.808975 0.169824 0)
(-0.851875 0.142037 0)
(-0.88695 0.112944 0)
(-0.913879 0.0828147 0)
(-0.932413 0.0519245 0)
(-0.942384 0.0205572 0)
(-0.943699 -0.0109988 0)
(-0.936346 -0.0424538 0)
(-0.920393 -0.0735189 0)
(-0.895986 -0.103909 0)
(-0.863349 -0.133344 0)
(-0.822783 -0.161555 0)
(-0.77466 -0.188282 0)
(-0.719421 -0.213279 0)
(-0.657575 -0.236318 0)
(-0.589688 -0.257185 0)
(-0.516386 -0.275691 0)
(-0.43834 -0.291665 0)
(-0.356269 -0.304959 0)
(-0.270925 -0.315453 0)
(-0.183093 -0.323049 0)
(-0.093579 -0.327678 0)
(0.043528 -0.417695 0)
(0.130184 -0.413859 0)
(0.215645 -0.406221 0)
(0.299124 -0.394852 0)
(0.379857 -0.379857 0)
(0.4571 -0.361372 0)
(0.530145 -0.339568 0)
(0.598321 -0.314646 0)
(0.661001 -0.286833 0)
(0.717609 -0.256386 0)
(0.767627 -0.223584 0)
(0.810594 -0.188729 0)
(0.846116 -0.15214 0)
(0.873866 -0.114153 0)
(0.89359 -0.0751183 0)
(0.905107 -0.0353934 0)
(0.90831 0.00465654 0)
(0.90317 0.0446637 0)
(0.889735 0.0842607 0)
(0.868128 0.123084 0)
(0.838547 0.160776 0)
(0.801264 0.196992 0)
(0.756621 0.231398 0)
(0.705029 0.26368 0)
(0.646961 0.293539 0)
(0.582952 0.320702 0)
(0.513587 0.344919 0)
(0.439506 0.365969 0)
(0.361387 0.383657 0)
(0.27995 0.397821 0)
(0.195941 0.408331 0)
(0.110132 0.415091 0)
(0.0233117 0.418038 0)
(-0.0637227 0.417145 0)
(-0.150172 0.412421 0)
(-0.235242 0.403909 0)
(-0.318151 0.391688 0)
(-0.398138 0.375868 0)
(-0.474468 0.356596 0)
(-0.54644 0.334049 0)
(-0.613393 0.308434 0)
(-0.674712 0.279986 0)
(-0.729834 0.248966 0)
(-0.778252 0.215659 0)
(-0.819523 0.180372 0)
(-0.853266 0.143428 0)
(-0.879172 0.105166 0)
(-0.897003 0.0659386 0)
(-0.906594 0.0261055 0)
(-0.907859 -0.0139673 0)
(-0.900786 -0.0539119 0)
(-0.885438 -0.0933613 0)
(-0.861958 -0.131953 0)
(-0.830561 -0.169333 0)
(-0.791536 -0.205158 0)
(-0.74524 -0.239098 0)
(-0.692099 -0.270842 0)
(-0.632601 -0.300099 0)
(-0.567293 -0.326599 0)
(-0.496775 -0.350099 0)
(-0.421693 -0.370384 0)
(-0.342739 -0.387266 0)
(-0.260636 -0.400592 0)
(-0.176139 -0.410239 0)
(-0.0900251 -0.416117 0)
(0.0414098 -0.502633 0)
(0.123849 -0.498016 0)
(0.205151 -0.488826 0)
(0.284568 -0.475145 0)
(0.361372 -0.4571 0)
(0.434857 -0.434857 0)
(0.504347 -0.408619 0)
(0.569205 -0.378629 0)
(0.628835 -0.345161 0)
(0.682689 -0.308522 0)
(0.730273 -0.26905 0)
(0.771149 -0.227106 0)
(0.804943 -0.183077 0)
(0.831343 -0.137366 0)
(0.850107 -0.0903935 0)
(0.861063 -0.0425906 0)
(0.86411 0.00560345 0)
(0.85922 0.053746 0)
(0.846439 0.101395 0)
(0.825883 0.148113 0)
(0.797742 0.19347 0)
(0.762273 0.23705 0)
(0.719803 0.278453 0)
(0.670721 0.317298 0)
(0.615479 0.353229 0)
(0.554584 0.385916 0)
(0.488595 0.415058 0)
(0.418119 0.440388 0)
(0.343802 0.461673 0)
(0.266327 0.478717 0)
(0.186406 0.491365 0)
(0.104773 0.499499 0)
(0.0221773 0.503045 0)
(-0.0606218 0.501971 0)
(-0.142864 0.496287 0)
(-0.223794 0.486044 0)
(-0.302669 0.471337 0)
(-0.378763 0.4523 0)
(-0.451379 0.42911 0)
(-0.519849 0.401978 0)
(-0.583544 0.371154 0)
(-0.641879 0.33692 0)
(-0.694319 0.299593 0)
(-0.740381 0.259513 0)
(-0.779643 0.21705 0)
(-0.811744 0.172593 0)
(-0.83639 0.126551 0)
(-0.853353 0.0793472 0)
(-0.862478 0.0314141 0)
(-0.863681 -0.0168076 0)
(-0.856952 -0.0648748 0)
(-0.842351 -0.112346 0)
(-0.820014 -0.158786 0)
(-0.790145 -0.203767 0)
(-0.753018 -0.246876 0)
(-0.708975 -0.287718 0)
(-0.65842 -0.325917 0)
(-0.601818 -0.361123 0)
(-0.539688 -0.393012 0)
(-0.472601 -0.421291 0)
(-0.401173 -0.445701 0)
(-0.32606 -0.466017 0)
(-0.247953 -0.482052 0)
(-0.167568 -0.49366 0)
(-0.0856443 -0.500734 0)
(0.0389113 -0.582954 0)
(0.116377 -0.5776 0)
(0.192773 -0.56694 0)
(0.267399 -0.551073 0)
(0.339568 -0.530145 0)
(0.408619 -0.504347 0)
(0.473917 -0.473917 0)
(0.534862 -0.439134 0)
(0.590894 -0.400317 0)
(0.641499 -0.357824 0)
(0.686211 -0.312044 0)
(0.724621 -0.263398 0)
(0.756376 -0.212333 0)
(0.781183 -0.159317 0)
(0.798815 -0.104838 0)
(0.80911 -0.0493966 0)
(0.811973 0.00649888 0)
(0.807379 0.0623347 0)
(0.795368 0.117598 0)
(0.776053 0.171781 0)
(0.749609 0.224387 0)
(0.71628 0.274931 0)
(0.676373 0.32295 0)
(0.630253 0.368003 0)
(0.578344 0.409676 0)
(0.521123 0.447586 0)
(0.459115 0.481385 0)
(0.392891 0.510762 0)
(0.323058 0.535448 0)
(0.250258 0.555217 0)
(0.175159 0.569885 0)
(0.0984512 0.579319 0)
(0.0208392 0.583432 0)
(-0.0569642 0.582187 0)
(-0.134244 0.575594 0)
(-0.210291 0.563714 0)
(-0.284407 0.546657 0)
(-0.35591 0.524578 0)
(-0.424145 0.497682 0)
(-0.488483 0.466214 0)
(-0.548335 0.430464 0)
(-0.603151 0.390761 0)
(-0.652427 0.347468 0)
(-0.69571 0.300984 0)
(-0.732603 0.251735 0)
(-0.762767 0.200174 0)
(-0.785925 0.146774 0)
(-0.801865 0.0920269 0)
(-0.81044 0.0364341 0)
(-0.81157 -0.0194934 0)
(-0.805247 -0.0752419 0)
(-0.791527 -0.130299 0)
(-0.770538 -0.18416 0)
(-0.742471 -0.236329 0)
(-0.707584 -0.286327 0)
(-0.666199 -0.333696 0)
(-0.618694 -0.377999 0)
(-0.565507 -0.418831 0)
(-0.507125 -0.455816 0)
(-0.444086 -0.488614 0)
(-0.376968 -0.516924 0)
(-0.306387 -0.540486 0)
(-0.232993 -0.559084 0)
(-0.157458 -0.572547 0)
(-0.0804769 -0.580751 0)
(0.0360554 -0.657921 0)
(0.107835 -0.651878 0)
(0.178624 -0.639848 0)
(0.247773 -0.62194 0)
(0.314646 -0.598321 0)
(0.378629 -0.569205 0)
(0.439134 -0.534862 0)
(0.495606 -0.495606 0)
(0.547525 -0.451798 0)
(0.594416 -0.40384 0)
(0.635847 -0.352172 0)
(0.671438 -0.297271 0)
(0.700862 -0.239638 0)
(0.723848 -0.179805 0)
(0.740186 -0.11832 0)
(0.749725 -0.0557489 0)
(0.752379 0.00733462 0)
(0.748121 0.0703508 0)
(0.736993 0.132721 0)
(0.719095 0.193872 0)
(0.694592 0.253242 0)
(0.663709 0.310286 0)
(0.626731 0.364481 0)
(0.583995 0.415327 0)
(0.535896 0.462359 0)
(0.482875 0.505144 0)
(0.425419 0.54329 0)
(0.364055 0.576445 0)
(0.299347 0.604306 0)
(0.23189 0.626616 0)
(0.162303 0.643171 0)
(0.0912254 0.653819 0)
(0.0193097 0.658461 0)
(-0.0527833 0.657055 0)
(-0.124391 0.649614 0)
(-0.194857 0.636207 0)
(-0.263533 0.616956 0)
(-0.329788 0.592038 0)
(-0.393015 0.561683 0)
(-0.452631 0.526168 0)
(-0.50809 0.485821 0)
(-0.558883 0.441012 0)
(-0.604542 0.392151 0)
(-0.644648 0.339689 0)
(-0.678834 0.284107 0)
(-0.706784 0.225916 0)
(-0.728243 0.165649 0)
(-0.743012 0.103861 0)
(-0.750958 0.0411194 0)
(-0.752005 -0.0220002 0)
(-0.746146 -0.0849178 0)
(-0.733433 -0.147055 0)
(-0.713984 -0.207842 0)
(-0.687977 -0.26672 0)
(-0.655651 -0.323148 0)
(-0.617303 -0.376608 0)
(-0.573285 -0.426609 0)
(-0.524002 -0.472692 0)
(-0.469905 -0.514433 0)
(-0.411493 -0.551449 0)
(-0.3493 -0.5834 0)
(-0.2839 -0.609992 0)
(-0.215892 -0.630982 0)
(-0.145901 -0.646176 0)
(-0.0745703 -0.655435 0)
(0.0328684 -0.726845 0)
(0.0983033 -0.720169 0)
(0.162835 -0.706878 0)
(0.225872 -0.687095 0)
(0.286833 -0.661001 0)
(0.345161 -0.628835 0)
(0.400317 -0.590894 0)
(0.451798 -0.547525 0)
(0.499128 -0.499128 0)
(0.541874 -0.446146 0)
(0.579643 -0.389066 0)
(0.612087 -0.328413 0)
(0.63891 -0.264743 0)
(0.659865 -0.198642 0)
(0.674759 -0.130716 0)
(0.683455 -0.0615892 0)
(0.685873 0.008103 0)
(0.681992 0.0777208 0)
(0.671847 0.146625 0)
(0.655531 0.214182 0)
(0.633195 0.279772 0)
(0.605042 0.342792 0)
(0.571332 0.402664 0)
(0.532374 0.458837 0)
(0.488527 0.510796 0)
(0.440192 0.558063 0)
(0.387815 0.600205 0)
(0.331875 0.636834 0)
(0.272887 0.667613 0)
(0.211393 0.692261 0)
(0.147957 0.71055 0)
(0.0831617 0.722313 0)
(0.0176029 0.727441 0)
(-0.0481176 0.725888 0)
(-0.113396 0.717668 0)
(-0.177633 0.702856 0)
(-0.240239 0.681588 0)
(-0.300637 0.65406 0)
(-0.358275 0.620525 0)
(-0.412622 0.58129 0)
(-0.463179 0.536716 0)
(-0.509481 0.487212 0)
(-0.551105 0.433233 0)
(-0.587666 0.375275 0)
(-0.618829 0.313871 0)
(-0.644309 0.249583 0)
(-0.663871 0.183003 0)
(-0.677335 0.114742 0)
(-0.684578 0.0454271 0)
(-0.685533 -0.024305 0)
(-0.680192 -0.0938138 0)
(-0.668603 -0.162461 0)
(-0.650873 -0.229616 0)
(-0.627165 -0.294662 0)
(-0.597696 -0.357001 0)
(-0.562738 -0.416062 0)
(-0.522611 -0.471301 0)
(-0.477683 -0.522211 0)
(-0.428369 -0.568325 0)
(-0.375119 -0.609218 0)
(-0.318425 -0.644516 0)
(-0.258805 -0.673895 0)
(-0.196809 -0.697083 0)
(-0.133005 -0.713869 0)
(-0.0679788 -0.724098 0)
(0.0293794 -0.789093 0)
(0.0878685 -0.781845 0)
(0.14555 -0.767416 0)
(0.201896 -0.745938 0)
(0.256386 -0.717609 0)
(0.308522 -0.682689 0)
(0.357824 -0.641499 0)
(0.40384 -0.594416 0)
(0.446146 -0.541874 0)
(0.484354 -0.484354 0)
(0.518114 -0.422386 0)
(0.547115 -0.356538 0)
(0.571091 -0.287416 0)
(0.589821 -0.215654 0)
(0.603134 -0.14191 0)
(0.610907 -0.0668638 0)
(0.613069 0.00879695 0)
(0.6096 0.0843769 0)
(0.600531 0.159182 0)
(0.585947 0.232525 0)
(0.565982 0.303732 0)
(0.540817 0.372149 0)
(0.510685 0.437148 0)
(0.475863 0.498133 0)
(0.43667 0.554541 0)
(0.393466 0.605857 0)
(0.346648 0.651607 0)
(0.296647 0.691373 0)
(0.24392 0.724788 0)
(0.188953 0.751547 0)
(0.132251 0.771402 0)
(0.0743341 0.784172 0)
(0.0157343 0.78974 0)
(-0.04301 0.788054 0)
(-0.101359 0.77913 0)
(-0.158778 0.763049 0)
(-0.214737 0.73996 0)
(-0.268725 0.710075 0)
(-0.320244 0.673667 0)
(-0.368822 0.631072 0)
(-0.414013 0.582681 0)
(-0.4554 0.528937 0)
(-0.492605 0.470336 0)
(-0.525286 0.407414 0)
(-0.553141 0.340751 0)
(-0.575916 0.270957 0)
(-0.593402 0.198675 0)
(-0.605437 0.124569 0)
(-0.611911 0.0493175 0)
(-0.612765 -0.0263865 0)
(-0.60799 -0.101848 0)
(-0.597631 -0.176374 0)
(-0.581783 -0.249281 0)
(-0.560592 -0.319897 0)
(-0.534251 -0.387575 0)
(-0.503004 -0.451694 0)
(-0.467136 -0.511664 0)
(-0.426978 -0.566934 0)
(-0.382898 -0.616997 0)
(-0.335301 -0.661393 0)
(-0.284624 -0.699714 0)
(-0.231333 -0.731608 0)
(-0.175918 -0.756782 0)
(-0.118886 -0.775006 0)
(-0.0607629 -0.786111 0)
(0.0256206 -0.844093 0)
(0.0766266 -0.83634 0)
(0.126929 -0.820905 0)
(0.176065 -0.797931 0)
(0.223584 -0.767627 0)
(0.26905 -0.730273 0)
(0.312044 -0.686211 0)
(0.352172 -0.635847 0)
(0.389066 -0.579643 0)
(0.422386 -0.518114 0)
(0.451827 -0.451827 0)
(0.477117 -0.381389 0)
(0.498025 -0.307449 0)
(0.514359 -0.230685 0)
(0.525969 -0.151802 0)
(0.532747 -0.0715242 0)
(0.534633 0.0094101 0)
(0.531608 0.090258 0)
(0.5237 0.170277 0)
(0.510981 0.248732 0)
(0.49357 0.324902 0)
(0.471625 0.398088 0)
(0.445349 0.467618 0)
(0.414981 0.532853 0)
(0.380803 0.593193 0)
(0.343126 0.648085 0)
(0.302298 0.697025 0)
(0.258694 0.739562 0)
(0.212713 0.775306 0)
(0.164779 0.80393 0)
(0.115331 0.825169 0)
(0.0648238 0.838829 0)
(0.0137213 0.844785 0)
(-0.0375073 0.842982 0)
(-0.0883914 0.833435 0)
(-0.138464 0.816234 0)
(-0.187264 0.791536 0)
(-0.234344 0.759567 0)
(-0.279272 0.720622 0)
(-0.321635 0.675058 0)
(-0.361044 0.623294 0)
(-0.397137 0.565805 0)
(-0.429581 0.503118 0)
(-0.458081 0.435811 0)
(-0.482372 0.364501 0)
(-0.502234 0.289843 0)
(-0.517482 0.212523 0)
(-0.527977 0.133251 0)
(-0.533623 0.052755 0)
(-0.534368 -0.0282256 0)
(-0.530204 -0.108947 0)
(-0.521171 -0.188668 0)
(-0.50735 -0.266655 0)
(-0.48887 -0.342194 0)
(-0.465899 -0.41459 0)
(-0.438649 -0.483177 0)
(-0.407371 -0.547327 0)
(-0.37235 -0.606449 0)
(-0.33391 -0.660002 0)
(-0.292403 -0.707492 0)
(-0.248209 -0.748484 0)
(-0.201737 -0.782601 0)
(-0.153411 -0.80953 0)
(-0.103676 -0.829024 0)
(-0.0529889 -0.840903 0)
(0.0216265 -0.89134 0)
(0.0646809 -0.883153 0)
(0.107141 -0.866854 0)
(0.148617 -0.842594 0)
(0.188729 -0.810594 0)
(0.227106 -0.771149 0)
(0.263398 -0.724621 0)
(0.297271 -0.671438 0)
(0.328413 -0.612087 0)
(0.356538 -0.547115 0)
(0.381389 -0.477117 0)
(0.402737 -0.402737 0)
(0.420386 -0.324658 0)
(0.434173 -0.243597 0)
(0.443973 -0.160299 0)
(0.449695 -0.0755277 0)
(0.451286 0.00993682 0)
(0.448733 0.0953101 0)
(0.442058 0.179808 0)
(0.431322 0.262654 0)
(0.416625 0.343088 0)
(0.398101 0.420371 0)
(0.375921 0.493792 0)
(0.350288 0.562678 0)
(0.321438 0.626396 0)
(0.289635 0.684361 0)
(0.255172 0.73604 0)
(0.218365 0.780958 0)
(0.179552 0.818703 0)
(0.139091 0.848929 0)
(0.0973515 0.871357 0)
(0.0547182 0.885782 0)
(0.0115822 0.892071 0)
(-0.0316601 0.890167 0)
(-0.0746116 0.880086 0)
(-0.116878 0.861922 0)
(-0.158071 0.835841 0)
(-0.197811 0.802083 0)
(-0.235735 0.760958 0)
(-0.271494 0.712844 0)
(-0.304759 0.658182 0)
(-0.335225 0.597475 0)
(-0.362612 0.53128 0)
(-0.386668 0.460205 0)
(-0.407173 0.384904 0)
(-0.423938 0.306067 0)
(-0.436809 0.224419 0)
(-0.445668 0.14071 0)
(-0.450434 0.0557079 0)
(-0.451063 -0.0298055 0)
(-0.447548 -0.115045 0)
(-0.439923 -0.199228 0)
(-0.428257 -0.281581 0)
(-0.412658 -0.361348 0)
(-0.393268 -0.437796 0)
(-0.370266 -0.510223 0)
(-0.343864 -0.577963 0)
(-0.314303 -0.640395 0)
(-0.281855 -0.696945 0)
(-0.246819 -0.747093 0)
(-0.209515 -0.790379 0)
(-0.170287 -0.826406 0)
(-0.129495 -0.854843 0)
(-0.0875135 -0.875428 0)
(-0.0447282 -0.887972 0)
(0.0174338 -0.9304 0)
(0.0521412 -0.921855 0)
(0.0863697 -0.904842 0)
(0.119805 -0.879518 0)
(0.15214 -0.846116 0)
(0.183077 -0.804943 0)
(0.212333 -0.756376 0)
(0.239638 -0.700862 0)
(0.264743 -0.63891 0)
(0.287416 -0.571091 0)
(0.307449 -0.498025 0)
(0.324658 -0.420386 0)
(0.338885 -0.338885 0)
(0.35 -0.254272 0)
(0.3579 -0.167323 0)
(0.362512 -0.0788375 0)
(0.363795 0.0103723 0)
(0.361736 0.0994868 0)
(0.356355 0.187687 0)
(0.347701 0.274164 0)
(0.335854 0.358123 0)
(0.320921 0.438792 0)
(0.303041 0.515431 0)
(0.282377 0.587336 0)
(0.25912 0.653846 0)
(0.233483 0.714351 0)
(0.205701 0.768294 0)
(0.17603 0.815181 0)
(0.144742 0.854581 0)
(0.112125 0.886131 0)
(0.0784779 0.909542 0)
(0.0441099 0.924599 0)
(0.00933676 0.931163 0)
(-0.0255221 0.929175 0)
(-0.0601466 0.918653 0)
(-0.0942186 0.899693 0)
(-0.127425 0.872469 0)
(-0.159461 0.837232 0)
(-0.190033 0.794305 0)
(-0.218859 0.744082 0)
(-0.245675 0.687025 0)
(-0.270235 0.623657 0)
(-0.292312 0.554562 0)
(-0.311705 0.480373 0)
(-0.328234 0.401771 0)
(-0.341749 0.319479 0)
(-0.352125 0.234253 0)
(-0.359266 0.146876 0)
(-0.363108 0.0581491 0)
(-0.363615 -0.0311117 0)
(-0.360781 -0.120087 0)
(-0.354635 -0.207959 0)
(-0.34523 -0.293921 0)
(-0.332655 -0.377183 0)
(-0.317025 -0.456981 0)
(-0.298482 -0.532581 0)
(-0.277199 -0.60329 0)
(-0.253369 -0.668458 0)
(-0.227212 -0.727486 0)
(-0.198968 -0.779832 0)
(-0.168896 -0.825015 0)
(-0.137273 -0.862621 0)
(-0.10439 -0.892304 0)
(-0.0705471 -0.913791 0)
(-0.0360567 -0.926884 0)
(0.0130809 -0.960915 0)
(0.0391225 -0.952089 0)
(0.0648048 -0.934518 0)
(0.0898918 -0.908364 0)
(0.114153 -0.873866 0)
(0.137366 -0.831343 0)
(0.159317 -0.781183 0)
(0.179805 -0.723848 0)
(0.198642 -0.659865 0)
(0.215654 -0.589821 0)
(0.230685 -0.514359 0)
(0.243597 -0.434173 0)
(0.254272 -0.35 0)
(0.262611 -0.262611 0)
(0.268539 -0.172811 0)
(0.272 -0.0814231 0)
(0.272962 0.0107125 0)
(0.271418 0.10275 0)
(0.26738 0.193843 0)
(0.260887 0.283156 0)
(0.251997 0.369868 0)
(0.240793 0.453183 0)
(0.227377 0.532336 0)
(0.211873 0.606599 0)
(0.194423 0.675291 0)
(0.175187 0.73778 0)
(0.154341 0.793492 0)
(0.132079 0.841917 0)
(0.108603 0.882609 0)
(0.0841295 0.915193 0)
(0.0588834 0.939372 0)
(0.0330965 0.954923 0)
(0.00700554 0.961703 0)
(-0.0191497 0.95965 0)
(-0.0451291 0.948782 0)
(-0.070694 0.9292 0)
(-0.0956095 0.901084 0)
(-0.119647 0.864691 0)
(-0.142585 0.820356 0)
(-0.164214 0.768486 0)
(-0.184335 0.709557 0)
(-0.202762 0.644112 0)
(-0.219327 0.57275 0)
(-0.233878 0.496127 0)
(-0.24628 0.414948 0)
(-0.256421 0.329958 0)
(-0.264206 0.241936 0)
(-0.269564 0.151693 0)
(-0.272447 0.0600562 0)
(-0.272827 -0.0321321 0)
(-0.270701 -0.124025 0)
(-0.266089 -0.214779 0)
(-0.259033 -0.30356 0)
(-0.249597 -0.389554 0)
(-0.23787 -0.471969 0)
(-0.223957 -0.550049 0)
(-0.207987 -0.623077 0)
(-0.190107 -0.690382 0)
(-0.170481 -0.751346 0)
(-0.149289 -0.805409 0)
(-0.126726 -0.852074 0)
(-0.102999 -0.890913 0)
(-0.0783255 -0.921569 0)
(-0.0529328 -0.943761 0)
(-0.027054 -0.957284 0)
(0.00860785 -0.982604 0)
(0.0257445 -0.973578 0)
(0.0426446 -0.955611 0)
(0.0591531 -0.928866 0)
(0.0751183 -0.89359 0)
(0.0903935 -0.850107 0)
(0.104838 -0.798815 0)
(0.11832 -0.740186 0)
(0.130716 -0.674759 0)
(0.14191 -0.603134 0)
(0.151802 -0.525969 0)
(0.160299 -0.443973 0)
(0.167323 -0.3579 0)
(0.172811 -0.268539 0)
(0.176711 -0.176711 0)
(0.178989 -0.0832609 0)
(0.179622 0.0109542 0)
(0.178606 0.105069 0)
(0.175949 0.198218 0)
(0.171676 0.289547 0)
(0.165826 0.378217 0)
(0.158453 0.463412 0)
(0.149625 0.544351 0)
(0.139423 0.620291 0)
(0.127939 0.690533 0)
(0.115281 0.754432 0)
(0.101564 0.811402 0)
(0.0869141 0.86092 0)
(0.0714659 0.90253 0)
(0.0553612 0.93585 0)
(0.0387481 0.960575 0)
(0.0217791 0.976477 0)
(0.00460998 0.98341 0)
(-0.0126014 0.98131 0)
(-0.0296971 0.970197 0)
(-0.04652 0.950173 0)
(-0.0629157 0.921422 0)
(-0.0787334 0.884208 0)
(-0.093828 0.838872 0)
(-0.108061 0.785831 0)
(-0.121301 0.725573 0)
(-0.133427 0.65865 0)
(-0.144328 0.585677 0)
(-0.153903 0.507325 0)
(-0.162064 0.424314 0)
(-0.168737 0.337405 0)
(-0.17386 0.247397 0)
(-0.177386 0.155117 0)
(-0.179283 0.0614118 0)
(-0.179533 -0.0328573 0)
(-0.178134 -0.126825 0)
(-0.175099 -0.219627 0)
(-0.170456 -0.310412 0)
(-0.164247 -0.398346 0)
(-0.15653 -0.482621 0)
(-0.147374 -0.562464 0)
(-0.136866 -0.63714 0)
(-0.1251 -0.705964 0)
(-0.112185 -0.768304 0)
(-0.0982394 -0.823587 0)
(-0.0833917 -0.871306 0)
(-0.0677781 -0.911022 0)
(-0.0515419 -0.94237 0)
(-0.0348323 -0.965062 0)
(-0.0178029 -0.978891 0)
(0.00405575 -0.995267 0)
(0.01213 -0.986126 0)
(0.0200928 -0.967927 0)
(0.0278711 -0.940838 0)
(0.0353934 -0.905107 0)
(0.0425906 -0.861063 0)
(0.0493966 -0.80911 0)
(0.0557489 -0.749725 0)
(0.0615892 -0.683455 0)
(0.0668638 -0.610907 0)
(0.0715242 -0.532747 0)
(0.0755277 -0.449695 0)
(0.0788375 -0.362512 0)
(0.0814231 -0.272 0)
(0.0832609 -0.178989 0)
(0.084334 -0.084334 0)
(0.0846324 0.0110954 0)
(0.0841535 0.106423 0)
(0.0829017 0.200773 0)
(0.0808884 0.293279 0)
(0.0781322 0.383091 0)
(0.0746583 0.469385 0)
(0.0704987 0.551367 0)
(0.0656916 0.628285 0)
(0.0602811 0.699432 0)
(0.0543169 0.764155 0)
(0.0478539 0.82186 0)
(0.0409513 0.872015 0)
(0.0336725 0.914161 0)
(0.0260845 0.947911 0)
(0.0182569 0.972954 0)
(0.0102616 0.989061 0)
(0.00217208 0.996084 0)
(-0.00593741 0.993957 0)
(-0.0139924 0.982701 0)
(-0.0219188 0.962419 0)
(-0.0296439 0.933297 0)
(-0.0370968 0.895603 0)
(-0.0442089 0.849683 0)
(-0.0509149 0.795959 0)
(-0.0571533 0.734924 0)
(-0.0628668 0.667138 0)
(-0.0680028 0.593225 0)
(-0.0725142 0.513864 0)
(-0.0763596 0.429782 0)
(-0.0795037 0.341753 0)
(-0.0819175 0.250585 0)
(-0.0835789 0.157116 0)
(-0.0844726 0.0622032 0)
(-0.0845905 -0.0332808 0)
(-0.0839314 -0.128459 0)
(-0.0825014 -0.222457 0)
(-0.0803136 -0.314413 0)
(-0.0773882 -0.40348 0)
(-0.0737519 -0.488841 0)
(-0.0694383 -0.569713 0)
(-0.0644868 -0.645351 0)
(-0.0589431 -0.715063 0)
(-0.052858 -0.778206 0)
(-0.0462874 -0.834202 0)
(-0.0392916 -0.882535 0)
(-0.0319349 -0.922763 0)
(-0.024285 -0.954515 0)
(-0.0164119 -0.9775 0)
(-0.00838815 -0.991506 0)
(-0.000533596 -0.998789 0)
(-0.00159589 -0.989616 0)
(-0.00264352 -0.971352 0)
(-0.00366687 -0.944167 0)
(-0.00465654 -0.90831 0)
(-0.00560345 -0.86411 0)
(-0.00649888 -0.811973 0)
(-0.00733462 -0.752379 0)
(-0.008103 -0.685873 0)
(-0.00879695 -0.613069 0)
(-0.0094101 -0.534633 0)
(-0.00993682 -0.451286 0)
(-0.0103723 -0.363795 0)
(-0.0107125 -0.272962 0)
(-0.0109542 -0.179622 0)
(-0.0110954 -0.0846324 0)
(-0.0111347 0.0111347 0)
(-0.0110717 0.1068 0)
(-0.010907 0.201483 0)
(-0.0106421 0.294317 0)
(-0.0102795 0.384447 0)
(-0.00982244 0.471046 0)
(-0.00927518 0.553318 0)
(-0.00864273 0.630508 0)
(-0.0079309 0.701907 0)
(-0.00714622 0.766859 0)
(-0.0062959 0.824768 0)
(-0.00538776 0.875101 0)
(-0.00443013 0.917397 0)
(-0.00343181 0.951266 0)
(-0.00240197 0.976398 0)
(-0.00135007 0.992561 0)
(-0.000285771 0.999609 0)
(0.000781156 0.997475 0)
(0.00184091 0.986179 0)
(0.00288375 0.965825 0)
(0.00390011 0.9366 0)
(0.00488064 0.898773 0)
(0.00581635 0.85269 0)
(0.00669863 0.798776 0)
(0.00751939 0.737525 0)
(0.00827108 0.669499 0)
(0.0089468 0.595325 0)
(0.00954035 0.515682 0)
(0.0100463 0.431303 0)
(0.0104599 0.342963 0)
(0.0107775 0.251472 0)
(0.0109961 0.157672 0)
(0.0111137 0.0624234 0)
(0.0111292 -0.0333985 0)
(0.0110424 -0.128914 0)
(0.0108543 -0.223245 0)
(0.0105665 -0.315525 0)
(0.0101816 -0.404908 0)
(0.00970319 -0.490571 0)
(0.00913566 -0.571729 0)
(0.00848423 -0.647635 0)
(0.00775486 -0.717593 0)
(0.00695427 -0.78096 0)
(0.00608981 -0.837154 0)
(0.00516941 -0.885658 0)
(0.00420153 -0.926028 0)
(0.00319506 -0.957893 0)
(0.00215924 -0.980959 0)
(0.00110359 -0.995015 0)
(-0.00511804 -0.993138 0)
(-0.0153071 -0.984016 0)
(-0.0253556 -0.965856 0)
(-0.0351712 -0.938825 0)
(-0.0446637 -0.90317 0)
(-0.053746 -0.85922 0)
(-0.0623347 -0.807379 0)
(-0.0703508 -0.748121 0)
(-0.0777208 -0.681992 0)
(-0.0843769 -0.6096 0)
(-0.090258 -0.531608 0)
(-0.0953101 -0.448733 0)
(-0.0994868 -0.361736 0)
(-0.10275 -0.271418 0)
(-0.105069 -0.178606 0)
(-0.106423 -0.0841535 0)
(-0.1068 0.0110717 0)
(-0.106195 0.106195 0)
(-0.104615 0.200343 0)
(-0.102075 0.292651 0)
(-0.0985967 0.382271 0)
(-0.094213 0.46838 0)
(-0.0889639 0.550187 0)
(-0.0828977 0.626941 0)
(-0.0760701 0.697936 0)
(-0.0685437 0.76252 0)
(-0.0603878 0.820101 0)
(-0.0516773 0.870149 0)
(-0.0424921 0.912205 0)
(-0.0329166 0.945883 0)
(-0.0230388 0.970873 0)
(-0.0129494 0.986945 0)
(-0.002741 0.993952 0)
(0.00749255 0.99183 0)
(0.0176573 0.980598 0)
(0.0276598 0.96036 0)
(0.0374083 0.9313 0)
(0.0468132 0.893687 0)
(0.0557881 0.847865 0)
(0.0642506 0.794256 0)
(0.072123 0.733351 0)
(0.079333 0.665711 0)
(0.0858142 0.591956 0)
(0.0915073 0.512764 0)
(0.0963599 0.428863 0)
(0.100327 0.341022 0)
(0.103373 0.250049 0)
(0.10547 0.15678 0)
(0.106598 0.0620701 0)
(0.106747 -0.0332096 0)
(0.105915 -0.128184 0)
(0.10411 -0.221981 0)
(0.101349 -0.31374 0)
(0.0976578 -0.402617 0)
(0.0930692 -0.487795 0)
(0.0876257 -0.568494 0)
(0.0813774 -0.643971 0)
(0.0743816 -0.713533 0)
(0.0667026 -0.776541 0)
(0.058411 -0.832417 0)
(0.0495829 -0.880647 0)
(0.0402994 -0.920788 0)
(0.0306457 -0.952472 0)
(0.0207106 -0.975408 0)
(0.0105852 -0.989385 0)
(-0.00965548 -0.978364 0)
(-0.0288777 -0.969378 0)
(-0.0478348 -0.951488 0)
(-0.0663525 -0.924859 0)
(-0.0842607 -0.889735 0)
(-0.101395 -0.846439 0)
(-0.117598 -0.795368 0)
(-0.132721 -0.736993 0)
(-0.146625 -0.671847 0)
(-0.159182 -0.600531 0)
(-0.170277 -0.5237 0)
(-0.179808 -0.442058 0)
(-0.187687 -0.356355 0)
(-0.193843 -0.26738 0)
(-0.198218 -0.175949 0)
(-0.200773 -0.0829017 0)
(-0.201483 0.010907 0)
(-0.200343 0.104615 0)
(-0.197363 0.197363 0)
(-0.19257 0.288298 0)
(-0.186008 0.376585 0)
(-0.177738 0.461413 0)
(-0.167835 0.542003 0)
(-0.156391 0.617614 0)
(-0.143511 0.687553 0)
(-0.129312 0.751177 0)
(-0.113925 0.807902 0)
(-0.0974922 0.857205 0)
(-0.0801638 0.898636 0)
(-0.0620991 0.931812 0)
(-0.043464 0.95643 0)
(-0.0244297 0.972264 0)
(-0.00517105 0.979167 0)
(0.0141351 0.977076 0)
(0.0333115 0.966011 0)
(0.0521818 0.946074 0)
(0.0705729 0.917447 0)
(0.0883158 0.880393 0)
(0.105248 0.835253 0)
(0.121213 0.782441 0)
(0.136064 0.722442 0)
(0.149666 0.655808 0)
(0.161893 0.58315 0)
(0.172634 0.505137 0)
(0.181788 0.422483 0)
(0.189273 0.335949 0)
(0.19502 0.24633 0)
(0.198975 0.154448 0)
(0.201103 0.0611468 0)
(0.201383 -0.0327155 0)
(0.199814 -0.126277 0)
(0.19641 -0.218679 0)
(0.191202 -0.309073 0)
(0.184237 -0.396627 0)
(0.17558 -0.480539 0)
(0.165311 -0.560037 0)
(0.153523 -0.634391 0)
(0.140325 -0.702918 0)
(0.125838 -0.764989 0)
(0.110196 -0.820034 0)
(0.093541 -0.867547 0)
(0.0760271 -0.907091 0)
(0.0578149 -0.938304 0)
(0.0390717 -0.960898 0)
(0.0199696 -0.974667 0)
(-0.0141042 -0.954604 0)
(-0.0421831 -0.945836 0)
(-0.0698746 -0.928381 0)
(-0.0969243 -0.902399 0)
(-0.123084 -0.868128 0)
(-0.148113 -0.825883 0)
(-0.171781 -0.776053 0)
(-0.193872 -0.719095 0)
(-0.214182 -0.655531 0)
(-0.232525 -0.585947 0)
(-0.248732 -0.510981 0)
(-0.262654 -0.431322 0)
(-0.274164 -0.347701 0)
(-0.283156 -0.260887 0)
(-0.289547 -0.171676 0)
(-0.293279 -0.0808884 0)
(-0.294317 0.0106421 0)